 Entering Gaussian System, Link 0=g09
 Input=etano-v2.inp
 Output=etano-v2.log
 Initial command:
 /usr/local/g09/l1.exe /home/g09scr/Gau-24042.inp -scrdir=/home/g09scr/
 Entering Link 1 = /usr/local/g09/l1.exe PID=     24044.
  
 Copyright (c) 1988,1990,1992,1993,1995,1998,2003,2009,2010,
            Gaussian, Inc.  All Rights Reserved.
  
 This is part of the Gaussian(R) 09 program.  It is based on
 the Gaussian(R) 03 system (copyright 2003, Gaussian, Inc.),
 the Gaussian(R) 98 system (copyright 1998, Gaussian, Inc.),
 the Gaussian(R) 94 system (copyright 1995, Gaussian, Inc.),
 the Gaussian 92(TM) system (copyright 1992, Gaussian, Inc.),
 the Gaussian 90(TM) system (copyright 1990, Gaussian, Inc.),
 the Gaussian 88(TM) system (copyright 1988, Gaussian, Inc.),
 the Gaussian 86(TM) system (copyright 1986, Carnegie Mellon
 University), and the Gaussian 82(TM) system (copyright 1983,
 Carnegie Mellon University). Gaussian is a federally registered
 trademark of Gaussian, Inc.
  
 This software contains proprietary and confidential information,
 including trade secrets, belonging to Gaussian, Inc.
  
 This software is provided under written license and may be
 used, copied, transmitted, or stored only in accord with that
 written license.
  
 The following legend is applicable only to US Government
 contracts under FAR:
  
                    RESTRICTED RIGHTS LEGEND
  
 Use, reproduction and disclosure by the US Government is
 subject to restrictions as set forth in subparagraphs (a)
 and (c) of the Commercial Computer Software - Restricted
 Rights clause in FAR 52.227-19.
  
 Gaussian, Inc.
 340 Quinnipiac St., Bldg. 40, Wallingford CT 06492
  
  
 ---------------------------------------------------------------
 Warning -- This program may not be used in any manner that
 competes with the business of Gaussian, Inc. or will provide
 assistance to any competitor of Gaussian, Inc.  The licensee
 of this program is prohibited from giving any competitor of
 Gaussian, Inc. access to this program.  By using this program,
 the user acknowledges that Gaussian, Inc. is engaged in the
 business of creating and licensing software in the field of
 computational chemistry and represents and warrants to the
 licensee that it is not a competitor of Gaussian, Inc. and that
 it will not use this program in any manner prohibited above.
 ---------------------------------------------------------------
  

 Cite this work as:
 Gaussian 09, Revision B.01,
 M. J. Frisch, G. W. Trucks, H. B. Schlegel, G. E. Scuseria, 
 M. A. Robb, J. R. Cheeseman, G. Scalmani, V. Barone, B. Mennucci, 
 G. A. Petersson, H. Nakatsuji, M. Caricato, X. Li, H. P. Hratchian, 
 A. F. Izmaylov, J. Bloino, G. Zheng, J. L. Sonnenberg, M. Hada, 
 M. Ehara, K. Toyota, R. Fukuda, J. Hasegawa, M. Ishida, T. Nakajima, 
 Y. Honda, O. Kitao, H. Nakai, T. Vreven, J. A. Montgomery, Jr., 
 J. E. Peralta, F. Ogliaro, M. Bearpark, J. J. Heyd, E. Brothers, 
 K. N. Kudin, V. N. Staroverov, T. Keith, R. Kobayashi, J. Normand, 
 K. Raghavachari, A. Rendell, J. C. Burant, S. S. Iyengar, J. Tomasi, 
 M. Cossi, N. Rega, J. M. Millam, M. Klene, J. E. Knox, J. B. Cross, 
 V. Bakken, C. Adamo, J. Jaramillo, R. Gomperts, R. E. Stratmann, 
 O. Yazyev, A. J. Austin, R. Cammi, C. Pomelli, J. W. Ochterski, 
 R. L. Martin, K. Morokuma, V. G. Zakrzewski, G. A. Voth, 
 P. Salvador, J. J. Dannenberg, S. Dapprich, A. D. Daniels, 
 O. Farkas, J. B. Foresman, J. V. Ortiz, J. Cioslowski, 
 and D. J. Fox, Gaussian, Inc., Wallingford CT, 2010.
 
 ******************************************
 Gaussian 09:  EM64L-G09RevB.01 12-Aug-2010
                30-Apr-2022 
 ******************************************
 %nprocshared=4
 Will use up to    4 processors via shared memory.
 %mem=30gb
 %NoSave
 %Chk=etano.chk
 ----------------------------------------------------------------------
 #MaxDisk=2600gb #B3LyP/6-311g(2d,d,p) fopt freq gfinput iop(6/7=3) tes
 t
 ----------------------------------------------------------------------
 1/14=-1,18=20,19=15,26=3,38=1/1,3;
 2/9=110,12=2,14=103,17=6,18=5,40=1/2;
 3/5=4,6=6,7=700,11=2,16=1,24=10,25=1,30=1,71=1,74=-5/1,2,3;
 4//1;
 5/5=2,38=5/2;
 6/7=3,8=2,9=2,10=2,28=1/1;
 7//1,2,3,16;
 1/14=-1,18=20,19=15/3(2);
 2/9=110/2;
 99//99;
 2/9=110/2;
 3/5=4,6=6,7=700,11=2,16=1,25=1,30=1,71=1,74=-5/1,2,3;
 4/5=5,16=3/1;
 5/5=2,38=5/2;
 7//1,2,3,16;
 1/14=-1,18=20,19=15/3(-5);
 2/9=110/2;
 6/7=3,8=2,9=2,10=2,19=2,28=1/1;
 99/9=1/99;
 -----------------
 prueba para etano
 -----------------
 Symbolic Z-matrix:
 Charge =  0 Multiplicity = 1
 c
 c                    1    cc2
 h                    1    hc3      2    hcc3
 h                    1    hc4      2    hcc4     3    dih4     0
 h                    1    hc5      4    hch5     2    dih5     0
 h                    2    hc6      1    hcc6     3    dih6     0
 h                    2    hc7      1    hcc7     3    dih7     0
 h                    2    hc8      1    hcc8     3    dih8     0
       Variables:
  cc2                   1.5                      
  hc3                   1.07                     
  hcc3                109.471                    
  hc4                   1.07                     
  hcc4                109.471                    
  dih4               -120.                       
  hc5                   1.07                     
  hch5                109.471                    
  dih5                120.                       
  hc6                   1.07                     
  hcc6                109.471                    
  dih6                180.                       
  hc7                   1.07                     
  hcc7                109.471                    
  dih7                -60.                       
  hc8                   1.07                     
  hcc8                109.471                    
  dih8                 60.                       
 
     6 tetrahedral angles replaced.

 GradGradGradGradGradGradGradGradGradGradGradGradGradGradGradGradGradGrad
 Berny optimization.
 Initialization pass.
                           ----------------------------
                           !    Initial Parameters    !
                           ! (Angstroms and Degrees)  !
 --------------------------                            --------------------------
 ! Name  Definition              Value          Derivative Info.                !
 --------------------------------------------------------------------------------
 ! R1    R(1,2)                  1.5            estimate D2E/DX2                !
 ! R2    R(1,3)                  1.07           estimate D2E/DX2                !
 ! R3    R(1,4)                  1.07           estimate D2E/DX2                !
 ! R4    R(1,5)                  1.07           estimate D2E/DX2                !
 ! R5    R(2,6)                  1.07           estimate D2E/DX2                !
 ! R6    R(2,7)                  1.07           estimate D2E/DX2                !
 ! R7    R(2,8)                  1.07           estimate D2E/DX2                !
 ! A1    A(2,1,3)              109.4712         estimate D2E/DX2                !
 ! A2    A(2,1,4)              109.4712         estimate D2E/DX2                !
 ! A3    A(2,1,5)              109.4712         estimate D2E/DX2                !
 ! A4    A(3,1,4)              109.4712         estimate D2E/DX2                !
 ! A5    A(3,1,5)              109.4712         estimate D2E/DX2                !
 ! A6    A(4,1,5)              109.4712         estimate D2E/DX2                !
 ! A7    A(1,2,6)              109.4712         estimate D2E/DX2                !
 ! A8    A(1,2,7)              109.4712         estimate D2E/DX2                !
 ! A9    A(1,2,8)              109.4712         estimate D2E/DX2                !
 ! A10   A(6,2,7)              109.4712         estimate D2E/DX2                !
 ! A11   A(6,2,8)              109.4712         estimate D2E/DX2                !
 ! A12   A(7,2,8)              109.4712         estimate D2E/DX2                !
 ! D1    D(3,1,2,6)            180.0            estimate D2E/DX2                !
 ! D2    D(3,1,2,7)            -60.0            estimate D2E/DX2                !
 ! D3    D(3,1,2,8)             60.0            estimate D2E/DX2                !
 ! D4    D(4,1,2,6)             60.0            estimate D2E/DX2                !
 ! D5    D(4,1,2,7)            180.0            estimate D2E/DX2                !
 ! D6    D(4,1,2,8)            -60.0            estimate D2E/DX2                !
 ! D7    D(5,1,2,6)            -60.0            estimate D2E/DX2                !
 ! D8    D(5,1,2,7)             60.0            estimate D2E/DX2                !
 ! D9    D(5,1,2,8)           -180.0            estimate D2E/DX2                !
 --------------------------------------------------------------------------------
 Trust Radius=3.00D-01 FncErr=1.00D-07 GrdErr=1.00D-06
 Number of steps in this run=     38 maximum allowed number of steps=    100.
 GradGradGradGradGradGradGradGradGradGradGradGradGradGradGradGradGradGrad

                          Input orientation:                          
 ---------------------------------------------------------------------
 Center     Atomic      Atomic             Coordinates (Angstroms)
 Number     Number       Type             X           Y           Z
 ---------------------------------------------------------------------
      1          6           0        0.000000    0.000000    0.000000
      2          6           0        0.000000    0.000000    1.500000
      3          1           0        1.008807    0.000000   -0.356667
      4          1           0       -0.504403    0.873651   -0.356667
      5          1           0       -0.504403   -0.873651   -0.356667
      6          1           0       -1.008807    0.000000    1.856667
      7          1           0        0.504403   -0.873651    1.856667
      8          1           0        0.504403    0.873651    1.856667
 ---------------------------------------------------------------------
                    Distance matrix (angstroms):
                    1          2          3          4          5
     1  C    0.000000
     2  C    1.500000   0.000000
     3  H    1.070001   2.113032   0.000000
     4  H    1.070000   2.113031   1.747303   0.000000
     5  H    1.070000   2.113031   1.747303   1.747303   0.000000
     6  H    2.113032   1.070001   2.994931   2.432393   2.432393
     7  H    2.113031   1.070000   2.432393   2.994929   2.432393
     8  H    2.113031   1.070000   2.432393   2.432393   2.994929
                    6          7          8
     6  H    0.000000
     7  H    1.747303   0.000000
     8  H    1.747303   1.747303   0.000000
 Stoichiometry    C2H6
 Framework group  S6[C3(C.C),X(H6)]
 Deg. of freedom     3
 Full point group                 S6      NOp   6
 Largest Abelian subgroup         CI      NOp   2
 Largest concise Abelian subgroup CI      NOp   2
                         Standard orientation:                         
 ---------------------------------------------------------------------
 Center     Atomic      Atomic             Coordinates (Angstroms)
 Number     Number       Type             X           Y           Z
 ---------------------------------------------------------------------
      1          6           0        0.000000    0.000000    0.750000
      2          6           0        0.000000    0.000000   -0.750000
      3          1           0        0.000000    1.008807    1.106667
      4          1           0        0.873652   -0.504403    1.106667
      5          1           0       -0.873652   -0.504403    1.106667
      6          1           0        0.000000   -1.008807   -1.106667
      7          1           0       -0.873652    0.504403   -1.106667
      8          1           0        0.873652    0.504403   -1.106667
 ---------------------------------------------------------------------
 Rotational constants (GHZ):     82.1230287     21.0726182     21.0726182
 Standard basis: 6-311G(2d,d,p) (5D, 7F)
 AO basis set in the form of general basis input (Overlap normalization):
      1 0
 S   6 1.00       0.000000000000
      0.4563240000D+04  0.1966650249D-02
      0.6820240000D+03  0.1523060193D-01
      0.1549730000D+03  0.7612690966D-01
      0.4445530000D+02  0.2608010331D+00
      0.1302900000D+02  0.6164620782D+00
      0.1827730000D+01  0.2210060280D+00
 SP   3 1.00       0.000000000000
      0.2096420000D+02  0.1146600807D+00  0.4024869267D-01
      0.4803310000D+01  0.9199996477D+00  0.2375939567D+00
      0.1459330000D+01 -0.3030682134D-02  0.8158538515D+00
 SP   1 1.00       0.000000000000
      0.4834560000D+00  0.1000000000D+01  0.1000000000D+01
 SP   1 1.00       0.000000000000
      0.1455850000D+00  0.1000000000D+01  0.1000000000D+01
 D   1 1.00       0.000000000000
      0.6260000000D+00  0.1000000000D+01
 ****
      2 0
 S   6 1.00       0.000000000000
      0.4563240000D+04  0.1966650249D-02
      0.6820240000D+03  0.1523060193D-01
      0.1549730000D+03  0.7612690966D-01
      0.4445530000D+02  0.2608010331D+00
      0.1302900000D+02  0.6164620782D+00
      0.1827730000D+01  0.2210060280D+00
 SP   3 1.00       0.000000000000
      0.2096420000D+02  0.1146600807D+00  0.4024869267D-01
      0.4803310000D+01  0.9199996477D+00  0.2375939567D+00
      0.1459330000D+01 -0.3030682134D-02  0.8158538515D+00
 SP   1 1.00       0.000000000000
      0.4834560000D+00  0.1000000000D+01  0.1000000000D+01
 SP   1 1.00       0.000000000000
      0.1455850000D+00  0.1000000000D+01  0.1000000000D+01
 D   1 1.00       0.000000000000
      0.6260000000D+00  0.1000000000D+01
 ****
      3 0
 S   3 1.00       0.000000000000
      0.3386500000D+02  0.2549381454D-01
      0.5094790000D+01  0.1903731086D+00
      0.1158790000D+01  0.8521614860D+00
 S   1 1.00       0.000000000000
      0.3258400000D+00  0.1000000000D+01
 S   1 1.00       0.000000000000
      0.1027410000D+00  0.1000000000D+01
 P   1 1.00       0.000000000000
      0.7500000000D+00  0.1000000000D+01
 ****
      4 0
 S   3 1.00       0.000000000000
      0.3386500000D+02  0.2549381454D-01
      0.5094790000D+01  0.1903731086D+00
      0.1158790000D+01  0.8521614860D+00
 S   1 1.00       0.000000000000
      0.3258400000D+00  0.1000000000D+01
 S   1 1.00       0.000000000000
      0.1027410000D+00  0.1000000000D+01
 P   1 1.00       0.000000000000
      0.7500000000D+00  0.1000000000D+01
 ****
      5 0
 S   3 1.00       0.000000000000
      0.3386500000D+02  0.2549381454D-01
      0.5094790000D+01  0.1903731086D+00
      0.1158790000D+01  0.8521614860D+00
 S   1 1.00       0.000000000000
      0.3258400000D+00  0.1000000000D+01
 S   1 1.00       0.000000000000
      0.1027410000D+00  0.1000000000D+01
 P   1 1.00       0.000000000000
      0.7500000000D+00  0.1000000000D+01
 ****
      6 0
 S   3 1.00       0.000000000000
      0.3386500000D+02  0.2549381454D-01
      0.5094790000D+01  0.1903731086D+00
      0.1158790000D+01  0.8521614860D+00
 S   1 1.00       0.000000000000
      0.3258400000D+00  0.1000000000D+01
 S   1 1.00       0.000000000000
      0.1027410000D+00  0.1000000000D+01
 P   1 1.00       0.000000000000
      0.7500000000D+00  0.1000000000D+01
 ****
      7 0
 S   3 1.00       0.000000000000
      0.3386500000D+02  0.2549381454D-01
      0.5094790000D+01  0.1903731086D+00
      0.1158790000D+01  0.8521614860D+00
 S   1 1.00       0.000000000000
      0.3258400000D+00  0.1000000000D+01
 S   1 1.00       0.000000000000
      0.1027410000D+00  0.1000000000D+01
 P   1 1.00       0.000000000000
      0.7500000000D+00  0.1000000000D+01
 ****
      8 0
 S   3 1.00       0.000000000000
      0.3386500000D+02  0.2549381454D-01
      0.5094790000D+01  0.1903731086D+00
      0.1158790000D+01  0.8521614860D+00
 S   1 1.00       0.000000000000
      0.3258400000D+00  0.1000000000D+01
 S   1 1.00       0.000000000000
      0.1027410000D+00  0.1000000000D+01
 P   1 1.00       0.000000000000
      0.7500000000D+00  0.1000000000D+01
 ****

 There are    36 symmetry adapted basis functions of AG  symmetry.
 There are    36 symmetry adapted basis functions of AU  symmetry.
 Integral buffers will be    131072 words long.
 Raffenetti 2 integral format.
 Two-electron integral symmetry is turned on.
    72 basis functions,   112 primitive gaussians,    74 cartesian basis functions
     9 alpha electrons        9 beta electrons
       nuclear repulsion energy        43.1725096367 Hartrees.
 NAtoms=    8 NActive=    8 NUniq=    2 SFac= 4.00D+00 NAtFMM=   50 NAOKFM=F Big=F
 One-electron integrals computed using PRISM.
 NBasis=    72 RedAO= T  NBF=    36    36
 NBsUse=    72 1.00D-06 NBFU=    36    36
 Harris functional with IExCor=  402 diagonalized for initial guess.
 ExpMin= 1.03D-01 ExpMax= 4.56D+03 ExpMxC= 6.82D+02 IAcc=1 IRadAn=         1 AccDes= 0.00D+00
 HarFok:  IExCor=  402 AccDes= 0.00D+00 IRadAn=         1 IDoV= 1
 ScaDFX=  1.000000  1.000000  1.000000  1.000000
 FoFCou: FMM=F IPFlag=           0 FMFlag=      100000 FMFlg1=           0
         NFxFlg=           0 DoJE=T BraDBF=F KetDBF=T FulRan=T
         Omega=  0.000000  0.000000  1.000000  0.000000  0.000000 ICntrl=     500 IOpCl=  0
         NMat0=    1 NMatS0=    1 NMatT0=    0 NMatD0=    1 NMtDS0=    0 NMtDT0=    0
         I1Cent=           4 NGrid=           0.
 Petite list used in FoFCou.
 Initial guess orbital symmetries:
       Occupied  (AG) (AU) (AG) (AU) (EU) (EU) (AG) (EG) (EG)
       Virtual   (AG) (AU) (EU) (EU) (EG) (EG) (AU) (EU) (EU) (AG)
                 (EG) (EG) (AU) (AG) (EG) (EG) (EU) (EU) (AU) (AG)
                 (AU) (EU) (EU) (EG) (EG) (EG) (EG) (EU) (EU) (AU)
                 (AG) (AG) (AU) (EU) (EU) (EG) (EG) (AU) (EU) (EU)
                 (AG) (AG) (EG) (EG) (EG) (EG) (AU) (EU) (EU) (EU)
                 (EU) (EG) (EG) (AU) (AG) (AG) (EU) (EU) (EG) (EG)
                 (AU) (AU) (AG)
 The electronic state of the initial guess is 1-AG.
 Requested convergence on RMS density matrix=1.00D-08 within 128 cycles.
 Requested convergence on MAX density matrix=1.00D-06.
 Requested convergence on             energy=1.00D-06.
 No special actions if energy rises.
 Keep R1 ints in memory in canonical form, NReq=4846658.
 Integral accuracy reduced to 1.0D-05 until final iterations.
 Initial convergence to 1.0D-05 achieved.  Increase integral accuracy.
 DSYEVD returned Info=          73 IAlg= 4 N=    36 NDim=    72 NE2=    55869363 trying DSYEV.
 SCF Done:  E(RB3LYP) =  -79.8523632694     A.U. after    9 cycles
             Convg  =    0.2265D-08             -V/T =  2.0024

 **********************************************************************

            Population analysis using the SCF density.

 **********************************************************************

 Orbital symmetries:
       Occupied  (AG) (AU) (AG) (AU) (EU) (EU) (AG) (EG) (EG)
       Virtual   (AG) (AU) (EU) (EU) (EG) (EG) (AU) (EU) (EU) (EG)
                 (EG) (AG) (AU) (AG) (EG) (EG) (EU) (EU) (AU) (AG)
                 (AU) (EU) (EU) (EG) (EG) (EG) (EG) (AU) (AG) (EU)
                 (EU) (AG) (AU) (EU) (EU) (EG) (EG) (AU) (EU) (EU)
                 (AG) (AG) (EG) (EG) (EG) (EG) (AU) (EU) (EU) (EU)
                 (EU) (EG) (EG) (AU) (AG) (AG) (EU) (EU) (EG) (EG)
                 (AU) (AU) (AG)
 The electronic state is 1-AG.
 Alpha  occ. eigenvalues --  -10.14645 -10.14618  -0.76564  -0.61713  -0.44754
 Alpha  occ. eigenvalues --   -0.44754  -0.36538  -0.34794  -0.34794
 Alpha virt. eigenvalues --    0.04939   0.09501   0.10591   0.10591   0.14149
 Alpha virt. eigenvalues --    0.14149   0.23273   0.31460   0.31460   0.31886
 Alpha virt. eigenvalues --    0.31886   0.32638   0.56329   0.59069   0.59992
 Alpha virt. eigenvalues --    0.59992   0.60672   0.60672   0.62421   0.76335
 Alpha virt. eigenvalues --    0.83870   0.96028   0.96028   1.27899   1.27899
 Alpha virt. eigenvalues --    1.45628   1.45628   1.46509   1.47738   1.48001
 Alpha virt. eigenvalues --    1.48001   1.51711   1.70365   1.72895   1.72895
 Alpha virt. eigenvalues --    1.85293   1.85293   1.95318   2.10144   2.10144
 Alpha virt. eigenvalues --    2.10444   2.32130   2.34389   2.34389   2.39444
 Alpha virt. eigenvalues --    2.39444   2.48896   2.55930   2.55930   2.62644
 Alpha virt. eigenvalues --    2.62644   2.67211   2.67211   2.75302   2.83688
 Alpha virt. eigenvalues --    3.20063   3.86564   3.86564   3.87709   3.87709
 Alpha virt. eigenvalues --    4.25691  23.96724  24.02256
     Molecular Orbital Coefficients:
                           1         2         3         4         5
                        (AG)--O   (AU)--O   (AG)--O   (AU)--O   (EU)--O
     Eigenvalues --   -10.14645 -10.14618  -0.76564  -0.61713  -0.44754
   1 1   C  1S          0.39802   0.39804  -0.08212  -0.07191   0.00000
   2        2S          0.32748   0.32753  -0.12670  -0.11176   0.00000
   3        2PX         0.00000   0.00000   0.00000   0.00000   0.13045
   4        2PY         0.00000   0.00000   0.00000   0.00000   0.06764
   5        2PZ        -0.00053   0.00032  -0.02785   0.05886   0.00000
   6        3S          0.01403   0.01350   0.32787   0.29557   0.00000
   7        3PX         0.00000   0.00000   0.00000   0.00000   0.18770
   8        3PY         0.00000   0.00000   0.00000   0.00000   0.09733
   9        3PZ         0.00228  -0.00014  -0.05048   0.08508   0.00000
  10        4S         -0.00283  -0.00662   0.17277   0.18892   0.00000
  11        4PX         0.00000   0.00000   0.00000   0.00000   0.11866
  12        4PY         0.00000   0.00000   0.00000   0.00000   0.06153
  13        4PZ         0.00009   0.00141  -0.01174   0.03917   0.00000
  14        5D 0       -0.00125   0.00020   0.00812  -0.01293   0.00000
  15        5D+1        0.00000   0.00000   0.00000   0.00000  -0.00262
  16        5D-1        0.00000   0.00000   0.00000   0.00000  -0.00136
  17        5D+2        0.00000   0.00000   0.00000   0.00000  -0.00576
  18        5D-2        0.00000   0.00000   0.00000   0.00000  -0.01110
  19 2   C  1S          0.39802  -0.39804  -0.08212   0.07191   0.00000
  20        2S          0.32748  -0.32753  -0.12670   0.11176   0.00000
  21        2PX         0.00000   0.00000   0.00000   0.00000   0.13045
  22        2PY         0.00000   0.00000   0.00000   0.00000   0.06764
  23        2PZ         0.00053   0.00032   0.02785   0.05886   0.00000
  24        3S          0.01403  -0.01350   0.32787  -0.29557   0.00000
  25        3PX         0.00000   0.00000   0.00000   0.00000   0.18770
  26        3PY         0.00000   0.00000   0.00000   0.00000   0.09733
  27        3PZ        -0.00228  -0.00014   0.05048   0.08508   0.00000
  28        4S         -0.00283   0.00662   0.17277  -0.18892   0.00000
  29        4PX         0.00000   0.00000   0.00000   0.00000   0.11866
  30        4PY         0.00000   0.00000   0.00000   0.00000   0.06153
  31        4PZ        -0.00009   0.00141   0.01174   0.03917   0.00000
  32        5D 0       -0.00125  -0.00020   0.00812   0.01293   0.00000
  33        5D+1        0.00000   0.00000   0.00000   0.00000   0.00262
  34        5D-1        0.00000   0.00000   0.00000   0.00000   0.00136
  35        5D+2        0.00000   0.00000   0.00000   0.00000   0.00576
  36        5D-2        0.00000   0.00000   0.00000   0.00000   0.01110
  37 3   H  1S         -0.00002   0.00009   0.05597   0.07618   0.05196
  38        2S         -0.00278  -0.00162   0.06306   0.09121   0.06548
  39        3S          0.00112   0.00100   0.00299   0.01673   0.02772
  40        4PX         0.00000   0.00000   0.00000   0.00000   0.00797
  41        4PY         0.00182   0.00130  -0.01092  -0.01218  -0.00363
  42        4PZ         0.00050   0.00045  -0.00553  -0.00117  -0.00316
  43 4   H  1S         -0.00002   0.00009   0.05597   0.07618   0.06080
  44        2S         -0.00278  -0.00162   0.06306   0.09121   0.07662
  45        3S          0.00112   0.00100   0.00299   0.01673   0.03243
  46        4PX         0.00157   0.00112  -0.00945  -0.01055   0.00011
  47        4PY        -0.00091  -0.00065   0.00546   0.00609   0.00868
  48        4PZ         0.00050   0.00045  -0.00553  -0.00117  -0.00370
  49 5   H  1S         -0.00002   0.00009   0.05597   0.07618  -0.11276
  50        2S         -0.00278  -0.00162   0.06306   0.09121  -0.14210
  51        3S          0.00112   0.00100   0.00299   0.01673  -0.06015
  52        4PX        -0.00157  -0.00112   0.00945   0.01055  -0.00662
  53        4PY        -0.00091  -0.00065   0.00546   0.00609  -0.00429
  54        4PZ         0.00050   0.00045  -0.00553  -0.00117   0.00686
  55 6   H  1S         -0.00002  -0.00009   0.05597  -0.07618  -0.05196
  56        2S         -0.00278   0.00162   0.06306  -0.09121  -0.06548
  57        3S          0.00112  -0.00100   0.00299  -0.01673  -0.02772
  58        4PX         0.00000   0.00000   0.00000   0.00000   0.00797
  59        4PY        -0.00182   0.00130   0.01092  -0.01218  -0.00363
  60        4PZ        -0.00050   0.00045   0.00553  -0.00117  -0.00316
  61 7   H  1S         -0.00002  -0.00009   0.05597  -0.07618  -0.06080
  62        2S         -0.00278   0.00162   0.06306  -0.09121  -0.07662
  63        3S          0.00112  -0.00100   0.00299  -0.01673  -0.03243
  64        4PX        -0.00157   0.00112   0.00945  -0.01055   0.00011
  65        4PY         0.00091  -0.00065  -0.00546   0.00609   0.00868
  66        4PZ        -0.00050   0.00045   0.00553  -0.00117  -0.00370
  67 8   H  1S         -0.00002  -0.00009   0.05597  -0.07618   0.11276
  68        2S         -0.00278   0.00162   0.06306  -0.09121   0.14210
  69        3S          0.00112  -0.00100   0.00299  -0.01673   0.06015
  70        4PX         0.00157  -0.00112  -0.00945   0.01055  -0.00662
  71        4PY         0.00091  -0.00065  -0.00546   0.00609  -0.00429
  72        4PZ        -0.00050   0.00045   0.00553  -0.00117   0.00686
                           6         7         8         9        10
                        (EU)--O   (AG)--O   (EG)--O   (EG)--O   (AG)--V
     Eigenvalues --    -0.44754  -0.36538  -0.34794  -0.34794   0.04939
   1 1   C  1S          0.00000   0.00869   0.00000   0.00000  -0.03792
   2        2S          0.00000   0.01382   0.00000   0.00000  -0.05905
   3        2PX        -0.06764   0.00000  -0.12151   0.08254   0.00000
   4        2PY         0.13045   0.00000  -0.08254  -0.12151   0.00000
   5        2PZ         0.00000   0.19207   0.00000   0.00000   0.05505
   6        3S          0.00000  -0.04368   0.00000   0.00000   0.11271
   7        3PX        -0.09733   0.00000  -0.16960   0.11521   0.00000
   8        3PY         0.18770   0.00000  -0.11521  -0.16960   0.00000
   9        3PZ         0.00000   0.27841   0.00000   0.00000   0.06753
  10        4S          0.00000  -0.02964   0.00000   0.00000   1.31682
  11        4PX        -0.06153   0.00000  -0.12722   0.08642   0.00000
  12        4PY         0.11866   0.00000  -0.08642  -0.12722   0.00000
  13        4PZ         0.00000   0.18672   0.00000   0.00000   0.32731
  14        5D 0        0.00000  -0.02096   0.00000   0.00000   0.00535
  15        5D+1        0.00136   0.00000  -0.01875   0.01274   0.00000
  16        5D-1       -0.00262   0.00000  -0.01274  -0.01875   0.00000
  17        5D+2       -0.01110   0.00000   0.00985   0.01450   0.00000
  18        5D-2        0.00576   0.00000   0.01450  -0.00985   0.00000
  19 2   C  1S          0.00000   0.00869   0.00000   0.00000  -0.03792
  20        2S          0.00000   0.01382   0.00000   0.00000  -0.05905
  21        2PX        -0.06764   0.00000   0.12151  -0.08254   0.00000
  22        2PY         0.13045   0.00000   0.08254   0.12151   0.00000
  23        2PZ         0.00000  -0.19207   0.00000   0.00000  -0.05505
  24        3S          0.00000  -0.04368   0.00000   0.00000   0.11271
  25        3PX        -0.09733   0.00000   0.16960  -0.11521   0.00000
  26        3PY         0.18770   0.00000   0.11521   0.16960   0.00000
  27        3PZ         0.00000  -0.27841   0.00000   0.00000  -0.06753
  28        4S          0.00000  -0.02964   0.00000   0.00000   1.31682
  29        4PX        -0.06153   0.00000   0.12722  -0.08642   0.00000
  30        4PY         0.11866   0.00000   0.08642   0.12722   0.00000
  31        4PZ         0.00000  -0.18672   0.00000   0.00000  -0.32731
  32        5D 0        0.00000  -0.02096   0.00000   0.00000   0.00535
  33        5D+1       -0.00136   0.00000  -0.01875   0.01274   0.00000
  34        5D-1        0.00262   0.00000  -0.01274  -0.01875   0.00000
  35        5D+2        0.01110   0.00000   0.00985   0.01450   0.00000
  36        5D-2       -0.00576   0.00000   0.01450  -0.00985   0.00000
  37 3   H  1S          0.10021   0.05030  -0.07525  -0.11077  -0.00514
  38        2S          0.12627   0.07208  -0.10739  -0.15809  -0.03059
  39        3S          0.05345   0.04263  -0.06923  -0.10191  -0.58855
  40        4PX        -0.00413   0.00000  -0.00768   0.00522   0.00000
  41        4PY        -0.00700  -0.00666   0.00436   0.00641  -0.00799
  42        4PZ        -0.00609   0.00962   0.00328   0.00482   0.00185
  43 4   H  1S         -0.09510   0.05030  -0.05831   0.12055  -0.00514
  44        2S         -0.11984   0.07208  -0.08321   0.17205  -0.03059
  45        3S         -0.05073   0.04263  -0.05364   0.11091  -0.58855
  46        4PX         0.00817  -0.00577  -0.00126  -0.00807  -0.00692
  47        4PY         0.00087   0.00333  -0.00893  -0.00001   0.00399
  48        4PZ         0.00578   0.00962   0.00254  -0.00525   0.00185
  49 5   H  1S         -0.00510   0.05030   0.13355  -0.00978  -0.00514
  50        2S         -0.00643   0.07208   0.19060  -0.01396  -0.03059
  51        3S         -0.00272   0.04263   0.12287  -0.00900  -0.58855
  52        4PX        -0.00479   0.00577   0.00704   0.00414   0.00692
  53        4PY         0.00759   0.00333   0.00328  -0.00830   0.00399
  54        4PZ         0.00031   0.00962  -0.00581   0.00043   0.00185
  55 6   H  1S         -0.10021   0.05030  -0.07525  -0.11077  -0.00514
  56        2S         -0.12627   0.07208  -0.10739  -0.15809  -0.03059
  57        3S         -0.05345   0.04263  -0.06923  -0.10191  -0.58855
  58        4PX        -0.00413   0.00000   0.00768  -0.00522   0.00000
  59        4PY        -0.00700   0.00666  -0.00436  -0.00641   0.00799
  60        4PZ        -0.00609  -0.00962  -0.00328  -0.00482  -0.00185
  61 7   H  1S          0.09510   0.05030  -0.05831   0.12055  -0.00514
  62        2S          0.11984   0.07208  -0.08321   0.17205  -0.03059
  63        3S          0.05073   0.04263  -0.05364   0.11091  -0.58855
  64        4PX         0.00817   0.00577   0.00126   0.00807   0.00692
  65        4PY         0.00087  -0.00333   0.00893   0.00001  -0.00399
  66        4PZ         0.00578  -0.00962  -0.00254   0.00525  -0.00185
  67 8   H  1S          0.00510   0.05030   0.13355  -0.00978  -0.00514
  68        2S          0.00643   0.07208   0.19060  -0.01396  -0.03059
  69        3S          0.00272   0.04263   0.12287  -0.00900  -0.58855
  70        4PX        -0.00479  -0.00577  -0.00704  -0.00414  -0.00692
  71        4PY         0.00759  -0.00333  -0.00328   0.00830  -0.00399
  72        4PZ         0.00031  -0.00962   0.00581  -0.00043  -0.00185
                          11        12        13        14        15
                        (AU)--V   (EU)--V   (EU)--V   (EG)--V   (EG)--V
     Eigenvalues --     0.09501   0.10591   0.10591   0.14149   0.14149
   1 1   C  1S         -0.04372   0.00000   0.00000   0.00000   0.00000
   2        2S         -0.06818   0.00000   0.00000   0.00000   0.00000
   3        2PX         0.00000  -0.10753  -0.04727  -0.10288  -0.05892
   4        2PY         0.00000   0.04727  -0.10753   0.05892  -0.10288
   5        2PZ         0.01851   0.00000   0.00000   0.00000   0.00000
   6        3S          0.12094   0.00000   0.00000   0.00000   0.00000
   7        3PX         0.00000  -0.09403  -0.04134  -0.09189  -0.05263
   8        3PY         0.00000   0.04134  -0.09403   0.05263  -0.09189
   9        3PZ        -0.00714   0.00000   0.00000   0.00000   0.00000
  10        4S          1.69213   0.00000   0.00000   0.00000   0.00000
  11        4PX         0.00000  -0.60650  -0.26663  -1.00562  -0.57593
  12        4PY         0.00000   0.26663  -0.60650   0.57593  -1.00562
  13        4PZ        -0.01512   0.00000   0.00000   0.00000   0.00000
  14        5D 0       -0.00031   0.00000   0.00000   0.00000   0.00000
  15        5D+1        0.00000   0.02500   0.01099  -0.00099  -0.00057
  16        5D-1        0.00000  -0.01099   0.02500   0.00057  -0.00099
  17        5D+2        0.00000   0.00711  -0.01618   0.00925  -0.01615
  18        5D-2        0.00000  -0.01618  -0.00711  -0.01615  -0.00925
  19 2   C  1S          0.04372   0.00000   0.00000   0.00000   0.00000
  20        2S          0.06818   0.00000   0.00000   0.00000   0.00000
  21        2PX         0.00000  -0.10753  -0.04727   0.10288   0.05892
  22        2PY         0.00000   0.04727  -0.10753  -0.05892   0.10288
  23        2PZ         0.01851   0.00000   0.00000   0.00000   0.00000
  24        3S         -0.12094   0.00000   0.00000   0.00000   0.00000
  25        3PX         0.00000  -0.09403  -0.04134   0.09189   0.05263
  26        3PY         0.00000   0.04134  -0.09403  -0.05263   0.09189
  27        3PZ        -0.00714   0.00000   0.00000   0.00000   0.00000
  28        4S         -1.69213   0.00000   0.00000   0.00000   0.00000
  29        4PX         0.00000  -0.60650  -0.26663   1.00562   0.57593
  30        4PY         0.00000   0.26663  -0.60650  -0.57593   1.00562
  31        4PZ        -0.01512   0.00000   0.00000   0.00000   0.00000
  32        5D 0        0.00031   0.00000   0.00000   0.00000   0.00000
  33        5D+1        0.00000  -0.02500  -0.01099  -0.00099  -0.00057
  34        5D-1        0.00000   0.01099  -0.02500   0.00057  -0.00099
  35        5D+2        0.00000  -0.00711   0.01618   0.00925  -0.01615
  36        5D-2        0.00000   0.01618   0.00711  -0.01615  -0.00925
  37 3   H  1S         -0.00737  -0.00819   0.01863  -0.00428   0.00747
  38        2S          0.01777   0.01816  -0.04130  -0.04636   0.08095
  39        3S         -0.75836  -0.55351   1.25908  -0.78880   1.37733
  40        4PX         0.00000  -0.00037  -0.00016  -0.00731  -0.00419
  41        4PY        -0.00803  -0.01166   0.02653  -0.01073   0.01874
  42        4PZ        -0.00723  -0.00544   0.01238  -0.00076   0.00132
  43 4   H  1S         -0.00737   0.02023  -0.00222   0.00861  -0.00003
  44        2S          0.01777  -0.04485   0.00493   0.09329  -0.00032
  45        3S         -0.75836   1.36715  -0.15018   1.58720  -0.00554
  46        4PX        -0.00695   0.02492  -0.00294   0.01869  -0.00428
  47        4PY         0.00401  -0.01444   0.00123  -0.01083  -0.00726
  48        4PZ        -0.00723   0.01345  -0.00148   0.00153  -0.00001
  49 5   H  1S         -0.00737  -0.01204  -0.01640  -0.00433  -0.00744
  50        2S          0.01777   0.02669   0.03637  -0.04692  -0.08063
  51        3S         -0.75836  -0.81364  -1.10890  -0.79840  -1.37179
  52        4PX         0.00695   0.01468   0.02035   0.00577   0.01829
  53        4PY         0.00401   0.00885   0.01147   0.01174   0.00566
  54        4PZ        -0.00723  -0.00800  -0.01091  -0.00077  -0.00132
  55 6   H  1S          0.00737   0.00819  -0.01863  -0.00428   0.00747
  56        2S         -0.01777  -0.01816   0.04130  -0.04636   0.08095
  57        3S          0.75836   0.55351  -1.25908  -0.78880   1.37733
  58        4PX         0.00000  -0.00037  -0.00016   0.00731   0.00419
  59        4PY        -0.00803  -0.01166   0.02653   0.01073  -0.01874
  60        4PZ        -0.00723  -0.00544   0.01238   0.00076  -0.00132
  61 7   H  1S          0.00737  -0.02023   0.00222   0.00861  -0.00003
  62        2S         -0.01777   0.04485  -0.00493   0.09329  -0.00032
  63        3S          0.75836  -1.36715   0.15018   1.58720  -0.00554
  64        4PX        -0.00695   0.02492  -0.00294  -0.01869   0.00428
  65        4PY         0.00401  -0.01444   0.00123   0.01083   0.00726
  66        4PZ        -0.00723   0.01345  -0.00148  -0.00153   0.00001
  67 8   H  1S          0.00737   0.01204   0.01640  -0.00433  -0.00744
  68        2S         -0.01777  -0.02669  -0.03637  -0.04692  -0.08063
  69        3S          0.75836   0.81364   1.10890  -0.79840  -1.37179
  70        4PX         0.00695   0.01468   0.02035  -0.00577  -0.01829
  71        4PY         0.00401   0.00885   0.01147  -0.01174  -0.00566
  72        4PZ        -0.00723  -0.00800  -0.01091   0.00077   0.00132
                          16        17        18        19        20
                        (AU)--V   (EU)--V   (EU)--V   (EG)--V   (EG)--V
     Eigenvalues --     0.23273   0.31460   0.31460   0.31886   0.31886
   1 1   C  1S          0.01766   0.00000   0.00000   0.00000   0.00000
   2        2S          0.02750   0.00000   0.00000   0.00000   0.00000
   3        2PX         0.00000   0.02226   0.00250  -0.03318   0.00673
   4        2PY         0.00000   0.00250  -0.02226  -0.00673  -0.03318
   5        2PZ         0.16062   0.00000   0.00000   0.00000   0.00000
   6        3S         -0.02818   0.00000   0.00000   0.00000   0.00000
   7        3PX         0.00000   0.11346   0.01277   0.01234  -0.00250
   8        3PY         0.00000   0.01277  -0.11346   0.00250   0.01234
   9        3PZ         0.19238   0.00000   0.00000   0.00000   0.00000
  10        4S         -1.51945   0.00000   0.00000   0.00000   0.00000
  11        4PX         0.00000   0.70751   0.07963   1.72768  -0.35066
  12        4PY         0.00000   0.07963  -0.70751   0.35066   1.72768
  13        4PZ         2.06307   0.00000   0.00000   0.00000   0.00000
  14        5D 0        0.04345   0.00000   0.00000   0.00000   0.00000
  15        5D+1        0.00000  -0.00534  -0.00060   0.03868  -0.00785
  16        5D-1        0.00000  -0.00060   0.00534   0.00785   0.03868
  17        5D+2        0.00000  -0.00084   0.00743  -0.00446  -0.02198
  18        5D-2        0.00000  -0.00743  -0.00084  -0.02198   0.00446
  19 2   C  1S         -0.01766   0.00000   0.00000   0.00000   0.00000
  20        2S         -0.02750   0.00000   0.00000   0.00000   0.00000
  21        2PX         0.00000   0.02226   0.00250   0.03318  -0.00673
  22        2PY         0.00000   0.00250  -0.02226   0.00673   0.03318
  23        2PZ         0.16062   0.00000   0.00000   0.00000   0.00000
  24        3S          0.02818   0.00000   0.00000   0.00000   0.00000
  25        3PX         0.00000   0.11346   0.01277  -0.01234   0.00250
  26        3PY         0.00000   0.01277  -0.11346  -0.00250  -0.01234
  27        3PZ         0.19238   0.00000   0.00000   0.00000   0.00000
  28        4S          1.51945   0.00000   0.00000   0.00000   0.00000
  29        4PX         0.00000   0.70751   0.07963  -1.72768   0.35066
  30        4PY         0.00000   0.07963  -0.70751  -0.35066  -1.72768
  31        4PZ         2.06307   0.00000   0.00000   0.00000   0.00000
  32        5D 0       -0.04345   0.00000   0.00000   0.00000   0.00000
  33        5D+1        0.00000   0.00534   0.00060   0.03868  -0.00785
  34        5D-1        0.00000   0.00060  -0.00534   0.00785   0.03868
  35        5D+2        0.00000   0.00084  -0.00743  -0.00446  -0.02198
  36        5D-2        0.00000   0.00743   0.00084  -0.02198   0.00446
  37 3   H  1S         -0.02792  -0.01072   0.09521  -0.00460  -0.02267
  38        2S         -0.12115  -0.10400   0.92411  -0.21616  -1.06499
  39        3S         -0.38803   0.02079  -0.18469   0.05874   0.28939
  40        4PX         0.00000   0.02366   0.00266   0.00850  -0.00173
  41        4PY        -0.01324   0.00474  -0.04211   0.01195   0.05889
  42        4PZ         0.01011  -0.00117   0.01038   0.01335   0.06577
  43 4   H  1S         -0.02792  -0.07710  -0.05689  -0.01733   0.01532
  44        2S         -0.12115  -0.74830  -0.55212  -0.81423   0.71969
  45        3S         -0.38803   0.14955   0.11035   0.22125  -0.19556
  46        4PX        -0.01147   0.03660   0.01221   0.04186  -0.03121
  47        4PY         0.00662  -0.00481  -0.02918  -0.01754   0.02553
  48        4PZ         0.01011  -0.00840  -0.00620   0.05028  -0.04444
  49 5   H  1S         -0.02792   0.08781  -0.03833   0.02193   0.00735
  50        2S         -0.12115   0.85230  -0.37198   1.03039   0.34530
  51        3S         -0.38803  -0.17034   0.07434  -0.27999  -0.09383
  52        4PX         0.01147   0.03840  -0.00377   0.05072   0.01242
  53        4PY         0.00662   0.01117  -0.02738   0.02610   0.01667
  54        4PZ         0.01011   0.00957  -0.00418  -0.06363  -0.02132
  55 6   H  1S          0.02792   0.01072  -0.09521  -0.00460  -0.02267
  56        2S          0.12115   0.10400  -0.92411  -0.21616  -1.06499
  57        3S          0.38803  -0.02079   0.18469   0.05874   0.28939
  58        4PX         0.00000   0.02366   0.00266  -0.00850   0.00173
  59        4PY        -0.01324   0.00474  -0.04211  -0.01195  -0.05889
  60        4PZ         0.01011  -0.00117   0.01038  -0.01335  -0.06577
  61 7   H  1S          0.02792   0.07710   0.05689  -0.01733   0.01532
  62        2S          0.12115   0.74830   0.55212  -0.81423   0.71969
  63        3S          0.38803  -0.14955  -0.11035   0.22125  -0.19556
  64        4PX        -0.01147   0.03660   0.01221  -0.04186   0.03121
  65        4PY         0.00662  -0.00481  -0.02918   0.01754  -0.02553
  66        4PZ         0.01011  -0.00840  -0.00620  -0.05028   0.04444
  67 8   H  1S          0.02792  -0.08781   0.03833   0.02193   0.00735
  68        2S          0.12115  -0.85230   0.37198   1.03039   0.34530
  69        3S          0.38803   0.17034  -0.07434  -0.27999  -0.09383
  70        4PX         0.01147   0.03840  -0.00377  -0.05072  -0.01242
  71        4PY         0.00662   0.01117  -0.02738  -0.02610  -0.01667
  72        4PZ         0.01011   0.00957  -0.00418   0.06363   0.02132
                          21        22        23        24        25
                        (AG)--V   (AU)--V   (AG)--V   (EG)--V   (EG)--V
     Eigenvalues --     0.32638   0.56329   0.59069   0.59992   0.59992
   1 1   C  1S         -0.01510  -0.07442   0.05203   0.00000   0.00000
   2        2S         -0.03151  -0.13330   0.09509   0.00000   0.00000
   3        2PX         0.00000   0.00000   0.00000   0.16566  -0.13397
   4        2PY         0.00000   0.00000   0.00000  -0.13397  -0.16566
   5        2PZ        -0.07342  -0.13987  -0.12772   0.00000   0.00000
   6        3S          0.20067   0.52654  -0.47620   0.00000   0.00000
   7        3PX         0.00000   0.00000   0.00000   0.52709  -0.42624
   8        3PY         0.00000   0.00000   0.00000  -0.42624  -0.52709
   9        3PZ        -0.36697  -0.18836  -0.44428   0.00000   0.00000
  10        4S          0.71619   1.43673   0.18686   0.00000   0.00000
  11        4PX         0.00000   0.00000   0.00000  -0.99024   0.80077
  12        4PY         0.00000   0.00000   0.00000   0.80077   0.99024
  13        4PZ         1.02595   0.00241   0.35543   0.00000   0.00000
  14        5D 0        0.03224  -0.09457  -0.03068   0.00000   0.00000
  15        5D+1        0.00000   0.00000   0.00000   0.00072  -0.00058
  16        5D-1        0.00000   0.00000   0.00000  -0.00058  -0.00072
  17        5D+2        0.00000   0.00000   0.00000  -0.03226  -0.03989
  18        5D-2        0.00000   0.00000   0.00000   0.03989  -0.03226
  19 2   C  1S         -0.01510   0.07442   0.05203   0.00000   0.00000
  20        2S         -0.03151   0.13330   0.09509   0.00000   0.00000
  21        2PX         0.00000   0.00000   0.00000  -0.16566   0.13397
  22        2PY         0.00000   0.00000   0.00000   0.13397   0.16566
  23        2PZ         0.07342  -0.13987   0.12772   0.00000   0.00000
  24        3S          0.20067  -0.52654  -0.47620   0.00000   0.00000
  25        3PX         0.00000   0.00000   0.00000  -0.52709   0.42624
  26        3PY         0.00000   0.00000   0.00000   0.42624   0.52709
  27        3PZ         0.36697  -0.18836   0.44428   0.00000   0.00000
  28        4S          0.71619  -1.43673   0.18686   0.00000   0.00000
  29        4PX         0.00000   0.00000   0.00000   0.99024  -0.80077
  30        4PY         0.00000   0.00000   0.00000  -0.80077  -0.99024
  31        4PZ        -1.02595   0.00241  -0.35543   0.00000   0.00000
  32        5D 0        0.03224   0.09457  -0.03068   0.00000   0.00000
  33        5D+1        0.00000   0.00000   0.00000   0.00072  -0.00058
  34        5D-1        0.00000   0.00000   0.00000  -0.00058  -0.00072
  35        5D+2        0.00000   0.00000   0.00000  -0.03226  -0.03989
  36        5D-2        0.00000   0.00000   0.00000   0.03989  -0.03226
  37 3   H  1S         -0.02554  -0.04701   0.06468   0.04261   0.05269
  38        2S         -0.39634  -0.82502   0.61668   0.29248   0.36169
  39        3S          0.03664   0.24632  -0.35338  -0.83103  -1.02766
  40        4PX         0.00000   0.00000   0.00000   0.02932  -0.02371
  41        4PY         0.00229  -0.00361   0.04583   0.01769   0.02188
  42        4PZ         0.00650  -0.01189   0.00676   0.02653   0.03280
  43 4   H  1S         -0.02554  -0.04701   0.06468  -0.06693   0.01055
  44        2S         -0.39634  -0.82502   0.61668  -0.45947   0.07245
  45        3S          0.03664   0.24632  -0.35338   1.30549  -0.20586
  46        4PX         0.00198  -0.00312   0.03969  -0.02700  -0.01483
  47        4PY        -0.00115   0.00180  -0.02292   0.00881  -0.03445
  48        4PZ         0.00650  -0.01189   0.00676  -0.04167   0.00657
  49 5   H  1S         -0.02554  -0.04701   0.06468   0.02433  -0.06324
  50        2S         -0.39634  -0.82502   0.61668   0.16699  -0.43414
  51        3S          0.03664   0.24632  -0.35338  -0.47447   1.23352
  52        4PX        -0.00198   0.00312  -0.03969   0.00885   0.02951
  53        4PY        -0.00115   0.00180  -0.02292  -0.03553   0.00141
  54        4PZ         0.00650  -0.01189   0.00676   0.01515  -0.03937
  55 6   H  1S         -0.02554   0.04701   0.06468   0.04261   0.05269
  56        2S         -0.39634   0.82502   0.61668   0.29248   0.36169
  57        3S          0.03664  -0.24632  -0.35338  -0.83103  -1.02766
  58        4PX         0.00000   0.00000   0.00000  -0.02932   0.02371
  59        4PY        -0.00229  -0.00361  -0.04583  -0.01769  -0.02188
  60        4PZ        -0.00650  -0.01189  -0.00676  -0.02653  -0.03280
  61 7   H  1S         -0.02554   0.04701   0.06468  -0.06693   0.01055
  62        2S         -0.39634   0.82502   0.61668  -0.45947   0.07245
  63        3S          0.03664  -0.24632  -0.35338   1.30549  -0.20586
  64        4PX        -0.00198  -0.00312  -0.03969   0.02700   0.01483
  65        4PY         0.00115   0.00180   0.02292  -0.00881   0.03445
  66        4PZ        -0.00650  -0.01189  -0.00676   0.04167  -0.00657
  67 8   H  1S         -0.02554   0.04701   0.06468   0.02433  -0.06324
  68        2S         -0.39634   0.82502   0.61668   0.16699  -0.43414
  69        3S          0.03664  -0.24632  -0.35338  -0.47447   1.23352
  70        4PX         0.00198   0.00312   0.03969  -0.00885  -0.02951
  71        4PY         0.00115   0.00180   0.02292   0.03553  -0.00141
  72        4PZ        -0.00650  -0.01189  -0.00676  -0.01515   0.03937
                          26        27        28        29        30
                        (EU)--V   (EU)--V   (AU)--V   (AG)--V   (AU)--V
     Eigenvalues --     0.60672   0.60672   0.62421   0.76335   0.83870
   1 1   C  1S          0.00000   0.00000   0.01519   0.06394   0.06140
   2        2S          0.00000   0.00000   0.02765   0.13161   0.12736
   3        2PX         0.12800  -0.13127   0.00000   0.00000   0.00000
   4        2PY        -0.13127  -0.12800   0.00000   0.00000   0.00000
   5        2PZ         0.00000   0.00000  -0.22042  -0.00423  -0.01055
   6        3S          0.00000   0.00000  -0.05131  -1.30037  -1.59348
   7        3PX         0.50048  -0.51326   0.00000   0.00000   0.00000
   8        3PY        -0.51326  -0.50048   0.00000   0.00000   0.00000
   9        3PZ         0.00000   0.00000  -0.66206   0.22414  -0.00785
  10        4S          0.00000   0.00000  -2.60714   3.41298   9.20455
  11        4PX        -0.96239   0.98698   0.00000   0.00000   0.00000
  12        4PY         0.98698   0.96239   0.00000   0.00000   0.00000
  13        4PZ         0.00000   0.00000   2.79432   0.45696  -2.35350
  14        5D 0        0.00000   0.00000  -0.06681  -0.10650  -0.02396
  15        5D+1       -0.04285   0.04394   0.00000   0.00000   0.00000
  16        5D-1        0.04394   0.04285   0.00000   0.00000   0.00000
  17        5D+2       -0.01536  -0.01498   0.00000   0.00000   0.00000
  18        5D-2        0.01498  -0.01536   0.00000   0.00000   0.00000
  19 2   C  1S          0.00000   0.00000  -0.01519   0.06394  -0.06140
  20        2S          0.00000   0.00000  -0.02765   0.13161  -0.12736
  21        2PX         0.12800  -0.13127   0.00000   0.00000   0.00000
  22        2PY        -0.13127  -0.12800   0.00000   0.00000   0.00000
  23        2PZ         0.00000   0.00000  -0.22042   0.00423  -0.01055
  24        3S          0.00000   0.00000   0.05131  -1.30037   1.59348
  25        3PX         0.50048  -0.51326   0.00000   0.00000   0.00000
  26        3PY        -0.51326  -0.50048   0.00000   0.00000   0.00000
  27        3PZ         0.00000   0.00000  -0.66206  -0.22414  -0.00785
  28        4S          0.00000   0.00000   2.60714   3.41298  -9.20455
  29        4PX        -0.96239   0.98698   0.00000   0.00000   0.00000
  30        4PY         0.98698   0.96239   0.00000   0.00000   0.00000
  31        4PZ         0.00000   0.00000   2.79432  -0.45696  -2.35350
  32        5D 0        0.00000   0.00000   0.06681  -0.10650   0.02396
  33        5D+1        0.04285  -0.04394   0.00000   0.00000   0.00000
  34        5D-1       -0.04394  -0.04285   0.00000   0.00000   0.00000
  35        5D+2        0.01536   0.01498   0.00000   0.00000   0.00000
  36        5D-2       -0.01498   0.01536   0.00000   0.00000   0.00000
  37 3   H  1S          0.03000   0.02926   0.02236  -0.02374   0.01451
  38        2S          0.12895   0.12574   0.45200  -0.69096  -1.10729
  39        3S         -0.96249  -0.93852  -0.69948  -0.50290  -0.39375
  40        4PX         0.00811  -0.00832   0.00000   0.00000   0.00000
  41        4PY         0.02775   0.02706   0.02490   0.09686   0.11320
  42        4PZ        -0.00300  -0.00293  -0.04597  -0.01087   0.09400
  43 4   H  1S         -0.04034   0.01136   0.02236  -0.02374   0.01451
  44        2S         -0.17337   0.04881   0.45200  -0.69096  -1.10729
  45        3S          1.29403  -0.36428  -0.69948  -0.50290  -0.39375
  46        4PX        -0.03389   0.00350   0.02156   0.08388   0.09804
  47        4PY         0.01593  -0.01494  -0.01245  -0.04843  -0.05660
  48        4PZ         0.00404  -0.00114  -0.04597  -0.01087   0.09400
  49 5   H  1S          0.01033  -0.04061   0.02236  -0.02374   0.01451
  50        2S          0.04442  -0.17455   0.45200  -0.69096  -1.10729
  51        3S         -0.33153   1.30280  -0.69948  -0.50290  -0.39375
  52        4PX        -0.00265   0.03396  -0.02156  -0.08388  -0.09804
  53        4PY        -0.01453   0.01630  -0.01245  -0.04843  -0.05660
  54        4PZ        -0.00103   0.00407  -0.04597  -0.01087   0.09400
  55 6   H  1S         -0.03000  -0.02926  -0.02236  -0.02374  -0.01451
  56        2S         -0.12895  -0.12574  -0.45200  -0.69096   1.10729
  57        3S          0.96249   0.93852   0.69948  -0.50290   0.39375
  58        4PX         0.00811  -0.00832   0.00000   0.00000   0.00000
  59        4PY         0.02775   0.02706   0.02490  -0.09686   0.11320
  60        4PZ        -0.00300  -0.00293  -0.04597   0.01087   0.09400
  61 7   H  1S          0.04034  -0.01136  -0.02236  -0.02374  -0.01451
  62        2S          0.17337  -0.04881  -0.45200  -0.69096   1.10729
  63        3S         -1.29403   0.36428   0.69948  -0.50290   0.39375
  64        4PX        -0.03389   0.00350   0.02156  -0.08388   0.09804
  65        4PY         0.01593  -0.01494  -0.01245   0.04843  -0.05660
  66        4PZ         0.00404  -0.00114  -0.04597   0.01087   0.09400
  67 8   H  1S         -0.01033   0.04061  -0.02236  -0.02374  -0.01451
  68        2S         -0.04442   0.17455  -0.45200  -0.69096   1.10729
  69        3S          0.33153  -1.30280   0.69948  -0.50290   0.39375
  70        4PX        -0.00265   0.03396  -0.02156   0.08388  -0.09804
  71        4PY        -0.01453   0.01630  -0.01245   0.04843  -0.05660
  72        4PZ        -0.00103   0.00407  -0.04597   0.01087   0.09400
                          31        32        33        34        35
                        (EU)--V   (EU)--V   (EG)--V   (EG)--V   (EG)--V
     Eigenvalues --     0.96028   0.96028   1.27899   1.27899   1.45628
   1 1   C  1S          0.00000   0.00000   0.00000   0.00000   0.00000
   2        2S          0.00000   0.00000   0.00000   0.00000   0.00000
   3        2PX        -0.01083   0.02368   0.00998  -0.00611   0.04842
   4        2PY         0.02368   0.01083   0.00611   0.00998   0.00336
   5        2PZ         0.00000   0.00000   0.00000   0.00000   0.00000
   6        3S          0.00000   0.00000   0.00000   0.00000   0.00000
   7        3PX        -0.01004   0.02195  -0.07293   0.04469   0.17717
   8        3PY         0.02195   0.01004  -0.04469  -0.07293   0.01230
   9        3PZ         0.00000   0.00000   0.00000   0.00000   0.00000
  10        4S          0.00000   0.00000   0.00000   0.00000   0.00000
  11        4PX        -0.05028   0.10995   0.75816  -0.46452   1.20670
  12        4PY         0.10995   0.05028   0.46452   0.75816   0.08378
  13        4PZ         0.00000   0.00000   0.00000   0.00000   0.00000
  14        5D 0        0.00000   0.00000   0.00000   0.00000   0.00000
  15        5D+1       -0.14966   0.32728  -0.19181   0.11752   0.15801
  16        5D-1        0.32728   0.14966  -0.11752  -0.19181   0.01097
  17        5D+2        0.11664   0.05334  -0.12150  -0.19831  -0.04088
  18        5D-2       -0.05334   0.11664  -0.19831   0.12150  -0.58876
  19 2   C  1S          0.00000   0.00000   0.00000   0.00000   0.00000
  20        2S          0.00000   0.00000   0.00000   0.00000   0.00000
  21        2PX        -0.01083   0.02368  -0.00998   0.00611  -0.04842
  22        2PY         0.02368   0.01083  -0.00611  -0.00998  -0.00336
  23        2PZ         0.00000   0.00000   0.00000   0.00000   0.00000
  24        3S          0.00000   0.00000   0.00000   0.00000   0.00000
  25        3PX        -0.01004   0.02195   0.07293  -0.04469  -0.17717
  26        3PY         0.02195   0.01004   0.04469   0.07293  -0.01230
  27        3PZ         0.00000   0.00000   0.00000   0.00000   0.00000
  28        4S          0.00000   0.00000   0.00000   0.00000   0.00000
  29        4PX        -0.05028   0.10995  -0.75816   0.46452  -1.20670
  30        4PY         0.10995   0.05028  -0.46452  -0.75816  -0.08378
  31        4PZ         0.00000   0.00000   0.00000   0.00000   0.00000
  32        5D 0        0.00000   0.00000   0.00000   0.00000   0.00000
  33        5D+1        0.14966  -0.32728  -0.19181   0.11752   0.15801
  34        5D-1       -0.32728  -0.14966  -0.11752  -0.19181   0.01097
  35        5D+2       -0.11664  -0.05334  -0.12150  -0.19831  -0.04088
  36        5D-2        0.05334  -0.11664  -0.19831   0.12150  -0.58876
  37 3   H  1S          0.01260   0.00576  -0.01689  -0.02757   0.01121
  38        2S         -0.13035  -0.05961  -0.15403  -0.25140  -0.07907
  39        3S         -0.05562  -0.02543  -0.11682  -0.19067   0.00886
  40        4PX        -0.09554   0.20893  -0.03897   0.02388  -0.25907
  41        4PY        -0.05696  -0.02605   0.07383   0.12050  -0.00511
  42        4PZ         0.18690   0.08547  -0.22022  -0.35943   0.01163
  43 4   H  1S         -0.01129   0.00803  -0.01543   0.02841   0.13420
  44        2S          0.11680  -0.08308  -0.14071   0.25910  -0.94676
  45        3S          0.04983  -0.03545  -0.10672   0.19651   0.10608
  46        4PX         0.11078   0.06216   0.03832  -0.11845  -0.12557
  47        4PY         0.08981   0.18028  -0.06851   0.04320  -0.09507
  48        4PZ        -0.16747   0.11912  -0.20117   0.37043   0.13922
  49 5   H  1S         -0.00131  -0.01380   0.03232  -0.00084  -0.14541
  50        2S          0.01355   0.14269   0.29474  -0.00770   1.02584
  51        3S          0.00578   0.06088   0.22354  -0.00584  -0.11494
  52        4PX        -0.11948  -0.04314   0.12294   0.01965  -0.11442
  53        4PY         0.19510  -0.04999   0.06960  -0.04141   0.06553
  54        4PZ        -0.01943  -0.20459   0.42139  -0.01100  -0.15084
  55 6   H  1S         -0.01260  -0.00576  -0.01689  -0.02757   0.01121
  56        2S          0.13035   0.05961  -0.15403  -0.25140  -0.07907
  57        3S          0.05562   0.02543  -0.11682  -0.19067   0.00886
  58        4PX        -0.09554   0.20893   0.03897  -0.02388   0.25907
  59        4PY        -0.05696  -0.02605  -0.07383  -0.12050   0.00511
  60        4PZ         0.18690   0.08547   0.22022   0.35943  -0.01163
  61 7   H  1S          0.01129  -0.00803  -0.01543   0.02841   0.13420
  62        2S         -0.11680   0.08308  -0.14071   0.25910  -0.94676
  63        3S         -0.04983   0.03545  -0.10672   0.19651   0.10608
  64        4PX         0.11078   0.06216  -0.03832   0.11845   0.12557
  65        4PY         0.08981   0.18028   0.06851  -0.04320   0.09507
  66        4PZ        -0.16747   0.11912   0.20117  -0.37043  -0.13922
  67 8   H  1S          0.00131   0.01380   0.03232  -0.00084  -0.14541
  68        2S         -0.01355  -0.14269   0.29474  -0.00770   1.02584
  69        3S         -0.00578  -0.06088   0.22354  -0.00584  -0.11494
  70        4PX        -0.11948  -0.04314  -0.12294  -0.01965   0.11442
  71        4PY         0.19510  -0.04999  -0.06960   0.04141  -0.06553
  72        4PZ        -0.01943  -0.20459  -0.42139   0.01100   0.15084
                          36        37        38        39        40
                        (EG)--V   (AU)--V   (AG)--V   (EU)--V   (EU)--V
     Eigenvalues --     1.45628   1.46509   1.47738   1.48001   1.48001
   1 1   C  1S          0.00000   0.00000   0.00000   0.00000   0.00000
   2        2S          0.00000   0.00000   0.00000   0.00000   0.00000
   3        2PX        -0.00336   0.00000   0.00000   0.04318   0.01050
   4        2PY         0.04842   0.00000   0.00000   0.01050  -0.04318
   5        2PZ         0.00000   0.00000   0.00000   0.00000   0.00000
   6        3S          0.00000   0.00000   0.00000   0.00000   0.00000
   7        3PX        -0.01230   0.00000   0.00000   0.15374   0.03736
   8        3PY         0.17717   0.00000   0.00000   0.03736  -0.15374
   9        3PZ         0.00000   0.00000   0.00000   0.00000   0.00000
  10        4S          0.00000   0.00000   0.00000   0.00000   0.00000
  11        4PX        -0.08378   0.00000   0.00000   0.55288   0.13436
  12        4PY         1.20670   0.00000   0.00000   0.13436  -0.55288
  13        4PZ         0.00000   0.00000   0.00000   0.00000   0.00000
  14        5D 0        0.00000   0.00000   0.00000   0.00000   0.00000
  15        5D+1       -0.01097   0.00000   0.00000   0.45316   0.11013
  16        5D-1        0.15801   0.00000   0.00000   0.11013  -0.45316
  17        5D+2       -0.58876   0.00000   0.00000  -0.11433   0.47043
  18        5D-2        0.04088   0.00000   0.00000  -0.47043  -0.11433
  19 2   C  1S          0.00000   0.00000   0.00000   0.00000   0.00000
  20        2S          0.00000   0.00000   0.00000   0.00000   0.00000
  21        2PX         0.00336   0.00000   0.00000   0.04318   0.01050
  22        2PY        -0.04842   0.00000   0.00000   0.01050  -0.04318
  23        2PZ         0.00000   0.00000   0.00000   0.00000   0.00000
  24        3S          0.00000   0.00000   0.00000   0.00000   0.00000
  25        3PX         0.01230   0.00000   0.00000   0.15374   0.03736
  26        3PY        -0.17717   0.00000   0.00000   0.03736  -0.15374
  27        3PZ         0.00000   0.00000   0.00000   0.00000   0.00000
  28        4S          0.00000   0.00000   0.00000   0.00000   0.00000
  29        4PX         0.08378   0.00000   0.00000   0.55288   0.13436
  30        4PY        -1.20670   0.00000   0.00000   0.13436  -0.55288
  31        4PZ         0.00000   0.00000   0.00000   0.00000   0.00000
  32        5D 0        0.00000   0.00000   0.00000   0.00000   0.00000
  33        5D+1       -0.01097   0.00000   0.00000  -0.45316  -0.11013
  34        5D-1        0.15801   0.00000   0.00000  -0.11013   0.45316
  35        5D+2       -0.58876   0.00000   0.00000   0.11433  -0.47043
  36        5D-2        0.04088   0.00000   0.00000   0.47043   0.11433
  37 3   H  1S          0.16143   0.00000   0.00000   0.06365  -0.26191
  38        2S         -1.13888   0.00000   0.00000  -0.26751   1.10076
  39        3S          0.12760   0.00000   0.00000   0.03625  -0.14916
  40        4PX         0.01799   0.42660   0.42712  -0.14153  -0.03439
  41        4PY        -0.07363   0.00000   0.00000   0.00458  -0.01886
  42        4PZ         0.16747   0.00000   0.00000  -0.02674   0.11002
  43 4   H  1S         -0.09042   0.00000   0.00000   0.19500   0.18608
  44        2S          0.63792   0.00000   0.00000  -0.81953  -0.78205
  45        3S         -0.07147   0.00000   0.00000   0.11105   0.10597
  46        4PX        -0.07197  -0.21330  -0.21356  -0.03812   0.06429
  47        4PY        -0.20714  -0.36944  -0.36990  -0.09410   0.08455
  48        4PZ        -0.09380   0.00000   0.00000  -0.08191  -0.07817
  49 5   H  1S         -0.07101   0.00000   0.00000  -0.25865   0.07583
  50        2S          0.50096   0.00000   0.00000   1.08704  -0.31871
  51        3S         -0.05613   0.00000   0.00000  -0.14730   0.04319
  52        4PX         0.08863  -0.21330  -0.21356  -0.00436  -0.07461
  53        4PY        -0.21829   0.36944   0.36990   0.04480   0.11831
  54        4PZ        -0.07366   0.00000   0.00000   0.10865  -0.03186
  55 6   H  1S          0.16143   0.00000   0.00000  -0.06365   0.26191
  56        2S         -1.13888   0.00000   0.00000   0.26751  -1.10076
  57        3S          0.12760   0.00000   0.00000  -0.03625   0.14916
  58        4PX        -0.01799   0.42660  -0.42712  -0.14153  -0.03439
  59        4PY         0.07363   0.00000   0.00000   0.00458  -0.01886
  60        4PZ        -0.16747   0.00000   0.00000  -0.02674   0.11002
  61 7   H  1S         -0.09042   0.00000   0.00000  -0.19500  -0.18608
  62        2S          0.63792   0.00000   0.00000   0.81953   0.78205
  63        3S         -0.07147   0.00000   0.00000  -0.11105  -0.10597
  64        4PX         0.07197  -0.21330   0.21356  -0.03812   0.06429
  65        4PY         0.20714  -0.36944   0.36990  -0.09410   0.08455
  66        4PZ         0.09380   0.00000   0.00000  -0.08191  -0.07817
  67 8   H  1S         -0.07101   0.00000   0.00000   0.25865  -0.07583
  68        2S          0.50096   0.00000   0.00000  -1.08704   0.31871
  69        3S         -0.05613   0.00000   0.00000   0.14730  -0.04319
  70        4PX        -0.08863  -0.21330   0.21356  -0.00436  -0.07461
  71        4PY         0.21829   0.36944  -0.36990   0.04480   0.11831
  72        4PZ         0.07366   0.00000   0.00000   0.10865  -0.03186
                          41        42        43        44        45
                        (AG)--V   (AU)--V   (EU)--V   (EU)--V   (EG)--V
     Eigenvalues --     1.51711   1.70365   1.72895   1.72895   1.85293
   1 1   C  1S         -0.01747   0.02931   0.00000   0.00000   0.00000
   2        2S         -0.04162   0.05770   0.00000   0.00000   0.00000
   3        2PX         0.00000   0.00000   0.00110   0.03793  -0.12298
   4        2PY         0.00000   0.00000   0.03793  -0.00110   0.19865
   5        2PZ         0.05864   0.27722   0.00000   0.00000   0.00000
   6        3S          0.37061  -0.29810   0.00000   0.00000   0.00000
   7        3PX         0.00000   0.00000  -0.00917  -0.31499   0.16449
   8        3PY         0.00000   0.00000  -0.31499   0.00917  -0.26570
   9        3PZ        -0.31683   0.10829   0.00000   0.00000   0.00000
  10        4S          0.31763  -1.07436   0.00000   0.00000   0.00000
  11        4PX         0.00000   0.00000   0.01810   0.62161  -0.40944
  12        4PY         0.00000   0.00000   0.62161  -0.01810   0.66137
  13        4PZ         0.68829   1.44499   0.00000   0.00000   0.00000
  14        5D 0       -0.55569  -0.21872   0.00000   0.00000   0.00000
  15        5D+1        0.00000   0.00000  -0.00564  -0.19363   0.23494
  16        5D-1        0.00000   0.00000  -0.19363   0.00564  -0.37949
  17        5D+2        0.00000   0.00000   0.01748  -0.00051   0.33619
  18        5D-2        0.00000   0.00000   0.00051   0.01748  -0.20813
  19 2   C  1S         -0.01747  -0.02931   0.00000   0.00000   0.00000
  20        2S         -0.04162  -0.05770   0.00000   0.00000   0.00000
  21        2PX         0.00000   0.00000   0.00110   0.03793   0.12298
  22        2PY         0.00000   0.00000   0.03793  -0.00110  -0.19865
  23        2PZ        -0.05864   0.27722   0.00000   0.00000   0.00000
  24        3S          0.37061   0.29810   0.00000   0.00000   0.00000
  25        3PX         0.00000   0.00000  -0.00917  -0.31499  -0.16449
  26        3PY         0.00000   0.00000  -0.31499   0.00917   0.26570
  27        3PZ         0.31683   0.10829   0.00000   0.00000   0.00000
  28        4S          0.31763   1.07436   0.00000   0.00000   0.00000
  29        4PX         0.00000   0.00000   0.01810   0.62161   0.40944
  30        4PY         0.00000   0.00000   0.62161  -0.01810  -0.66137
  31        4PZ        -0.68829   1.44499   0.00000   0.00000   0.00000
  32        5D 0       -0.55569   0.21872   0.00000   0.00000   0.00000
  33        5D+1        0.00000   0.00000   0.00564   0.19363   0.23494
  34        5D-1        0.00000   0.00000   0.19363  -0.00564  -0.37949
  35        5D+2        0.00000   0.00000  -0.01748   0.00051   0.33619
  36        5D-2        0.00000   0.00000  -0.00051  -0.01748  -0.20813
  37 3   H  1S          0.13655   0.05152  -0.10392   0.00303  -0.21121
  38        2S         -0.40155  -0.13797   0.08109  -0.00236   0.48758
  39        3S          0.04861  -0.14773  -0.37455   0.01090  -0.56585
  40        4PX         0.00000   0.00000  -0.00968  -0.33256   0.26916
  41        4PY         0.00359   0.05211  -0.40249   0.01172  -0.14273
  42        4PZ        -0.17602  -0.41924   0.42390  -0.01234   0.10341
  43 4   H  1S          0.13655   0.05152   0.04934  -0.09151   0.21884
  44        2S         -0.40155  -0.13797  -0.03850   0.07141  -0.50521
  45        3S          0.04861  -0.14773   0.17783  -0.32982   0.58630
  46        4PX         0.00311   0.04513   0.01907  -0.38589   0.00711
  47        4PY        -0.00179  -0.02605  -0.34916   0.04047  -0.28347
  48        4PZ        -0.17602  -0.41924  -0.20126   0.37328  -0.10715
  49 5   H  1S          0.13655   0.05152   0.05458   0.08849  -0.00763
  50        2S         -0.40155  -0.13797  -0.04259  -0.06905   0.01762
  51        3S          0.04861  -0.14773   0.19672   0.31891  -0.02045
  52        4PX        -0.00311  -0.04513  -0.04149  -0.38413   0.26002
  53        4PY        -0.00179  -0.02605  -0.35092  -0.02009  -0.44005
  54        4PZ        -0.17602  -0.41924  -0.22264  -0.36094   0.00374
  55 6   H  1S          0.13655  -0.05152   0.10392  -0.00303  -0.21121
  56        2S         -0.40155   0.13797  -0.08109   0.00236   0.48758
  57        3S          0.04861   0.14773   0.37455  -0.01090  -0.56585
  58        4PX         0.00000   0.00000  -0.00968  -0.33256  -0.26916
  59        4PY        -0.00359   0.05211  -0.40249   0.01172   0.14273
  60        4PZ         0.17602  -0.41924   0.42390  -0.01234  -0.10341
  61 7   H  1S          0.13655  -0.05152  -0.04934   0.09151   0.21884
  62        2S         -0.40155   0.13797   0.03850  -0.07141  -0.50521
  63        3S          0.04861   0.14773  -0.17783   0.32982   0.58630
  64        4PX        -0.00311   0.04513   0.01907  -0.38589  -0.00711
  65        4PY         0.00179  -0.02605  -0.34916   0.04047   0.28347
  66        4PZ         0.17602  -0.41924  -0.20126   0.37328   0.10715
  67 8   H  1S          0.13655  -0.05152  -0.05458  -0.08849  -0.00763
  68        2S         -0.40155   0.13797   0.04259   0.06905   0.01762
  69        3S          0.04861   0.14773  -0.19672  -0.31891  -0.02045
  70        4PX         0.00311  -0.04513  -0.04149  -0.38413  -0.26002
  71        4PY         0.00179  -0.02605  -0.35092  -0.02009   0.44005
  72        4PZ         0.17602  -0.41924  -0.22264  -0.36094  -0.00374
                          46        47        48        49        50
                        (EG)--V   (AU)--V   (EU)--V   (EU)--V   (AG)--V
     Eigenvalues --     1.85293   1.95318   2.10144   2.10144   2.10444
   1 1   C  1S          0.00000  -0.03054   0.00000   0.00000  -0.01577
   2        2S          0.00000  -0.04537   0.00000   0.00000  -0.03339
   3        2PX         0.19865   0.00000  -0.24435   0.17928   0.00000
   4        2PY         0.12298   0.00000  -0.17928  -0.24435   0.00000
   5        2PZ         0.00000  -0.03100   0.00000   0.00000   0.14266
   6        3S          0.00000   0.10585   0.00000   0.00000   0.27760
   7        3PX        -0.26570   0.00000   0.42154  -0.30928   0.00000
   8        3PY        -0.16449   0.00000   0.30928   0.42154   0.00000
   9        3PZ         0.00000  -0.39628   0.00000   0.00000   0.15423
  10        4S          0.00000  -0.70081   0.00000   0.00000   0.27454
  11        4PX         0.66137   0.00000  -0.12111   0.08886   0.00000
  12        4PY         0.40944   0.00000  -0.08886  -0.12111   0.00000
  13        4PZ         0.00000   0.12942   0.00000   0.00000   0.48309
  14        5D 0        0.00000   0.82309   0.00000   0.00000   0.37986
  15        5D+1       -0.37949   0.00000  -0.23513   0.17251   0.00000
  16        5D-1       -0.23494   0.00000  -0.17251  -0.23513   0.00000
  17        5D+2        0.20813   0.00000  -0.36240  -0.49394   0.00000
  18        5D-2        0.33619   0.00000  -0.49394   0.36240   0.00000
  19 2   C  1S          0.00000   0.03054   0.00000   0.00000  -0.01577
  20        2S          0.00000   0.04537   0.00000   0.00000  -0.03339
  21        2PX        -0.19865   0.00000  -0.24435   0.17928   0.00000
  22        2PY        -0.12298   0.00000  -0.17928  -0.24435   0.00000
  23        2PZ         0.00000  -0.03100   0.00000   0.00000  -0.14266
  24        3S          0.00000  -0.10585   0.00000   0.00000   0.27760
  25        3PX         0.26570   0.00000   0.42154  -0.30928   0.00000
  26        3PY         0.16449   0.00000   0.30928   0.42154   0.00000
  27        3PZ         0.00000  -0.39628   0.00000   0.00000  -0.15423
  28        4S          0.00000   0.70081   0.00000   0.00000   0.27454
  29        4PX        -0.66137   0.00000  -0.12111   0.08886   0.00000
  30        4PY        -0.40944   0.00000  -0.08886  -0.12111   0.00000
  31        4PZ         0.00000   0.12942   0.00000   0.00000  -0.48309
  32        5D 0        0.00000  -0.82309   0.00000   0.00000   0.37986
  33        5D+1       -0.37949   0.00000   0.23513  -0.17251   0.00000
  34        5D-1       -0.23494   0.00000   0.17251   0.23513   0.00000
  35        5D+2        0.20813   0.00000   0.36240   0.49394   0.00000
  36        5D-2        0.33619   0.00000   0.49394  -0.36240   0.00000
  37 3   H  1S         -0.13075  -0.37376   0.22375   0.30496  -0.05084
  38        2S          0.30185   0.77475  -0.51843  -0.70661  -0.00832
  39        3S         -0.35031  -0.20591   0.24132   0.32891  -0.09550
  40        4PX        -0.43477   0.00000   0.33709  -0.24732   0.00000
  41        4PY        -0.08836   0.03092   0.07944   0.10827   0.29416
  42        4PZ         0.06402  -0.22488   0.21706   0.29585  -0.43252
  43 4   H  1S         -0.11753  -0.37376   0.15223  -0.34625  -0.05084
  44        2S          0.27133   0.77475  -0.35273   0.80228  -0.00832
  45        3S         -0.31489  -0.20591   0.16419  -0.37344  -0.09550
  46        4PX        -0.29403   0.02678   0.23817  -0.02233   0.25475
  47        4PY        -0.35041  -0.01546   0.30443   0.20719  -0.14708
  48        4PZ         0.05755  -0.22488   0.14768  -0.33591  -0.43252
  49 5   H  1S          0.24829  -0.37376  -0.37598   0.04129  -0.05084
  50        2S         -0.57319   0.77475   0.87116  -0.09567  -0.00832
  51        3S          0.66519  -0.20591  -0.40550   0.04453  -0.09550
  52        4PX        -0.13746  -0.02678   0.09278  -0.22049  -0.25475
  53        4PY        -0.09750  -0.01546   0.10627   0.35258  -0.14708
  54        4PZ        -0.12157  -0.22488  -0.36474   0.04006  -0.43252
  55 6   H  1S         -0.13075   0.37376  -0.22375  -0.30496  -0.05084
  56        2S          0.30185  -0.77475   0.51843   0.70661  -0.00832
  57        3S         -0.35031   0.20591  -0.24132  -0.32891  -0.09550
  58        4PX         0.43477   0.00000   0.33709  -0.24732   0.00000
  59        4PY         0.08836   0.03092   0.07944   0.10827  -0.29416
  60        4PZ        -0.06402  -0.22488   0.21706   0.29585   0.43252
  61 7   H  1S         -0.11753   0.37376  -0.15223   0.34625  -0.05084
  62        2S          0.27133  -0.77475   0.35273  -0.80228  -0.00832
  63        3S         -0.31489   0.20591  -0.16419   0.37344  -0.09550
  64        4PX         0.29403   0.02678   0.23817  -0.02233  -0.25475
  65        4PY         0.35041  -0.01546   0.30443   0.20719   0.14708
  66        4PZ        -0.05755  -0.22488   0.14768  -0.33591   0.43252
  67 8   H  1S          0.24829   0.37376   0.37598  -0.04129  -0.05084
  68        2S         -0.57319  -0.77475  -0.87116   0.09567  -0.00832
  69        3S          0.66519   0.20591   0.40550  -0.04453  -0.09550
  70        4PX         0.13746  -0.02678   0.09278  -0.22049   0.25475
  71        4PY         0.09750  -0.01546   0.10627   0.35258   0.14708
  72        4PZ         0.12157  -0.22488  -0.36474   0.04006   0.43252
                          51        52        53        54        55
                        (AG)--V   (EG)--V   (EG)--V   (EG)--V   (EG)--V
     Eigenvalues --     2.32130   2.34389   2.34389   2.39444   2.39444
   1 1   C  1S         -0.04205   0.00000   0.00000   0.00000   0.00000
   2        2S         -0.07843   0.00000   0.00000   0.00000   0.00000
   3        2PX         0.00000  -0.02864  -0.00027  -0.33685   0.04568
   4        2PY         0.00000   0.00027  -0.02864  -0.04568  -0.33685
   5        2PZ         0.30617   0.00000   0.00000   0.00000   0.00000
   6        3S          0.49989   0.00000   0.00000   0.00000   0.00000
   7        3PX         0.00000  -1.24538  -0.01181   0.23037  -0.03124
   8        3PY         0.00000   0.01181  -1.24538   0.03124   0.23037
   9        3PZ        -0.33822   0.00000   0.00000   0.00000   0.00000
  10        4S         -0.45685   0.00000   0.00000   0.00000   0.00000
  11        4PX         0.00000  -0.41612  -0.00395   0.30129  -0.04086
  12        4PY         0.00000   0.00395  -0.41612   0.04086   0.30129
  13        4PZ         0.06831   0.00000   0.00000   0.00000   0.00000
  14        5D 0       -0.38117   0.00000   0.00000   0.00000   0.00000
  15        5D+1        0.00000   0.05541   0.00053   0.40682  -0.05517
  16        5D-1        0.00000  -0.00053   0.05541   0.05517   0.40682
  17        5D+2        0.00000  -0.00369   0.38878   0.07884   0.58144
  18        5D-2        0.00000   0.38878   0.00369   0.58144  -0.07884
  19 2   C  1S         -0.04205   0.00000   0.00000   0.00000   0.00000
  20        2S         -0.07843   0.00000   0.00000   0.00000   0.00000
  21        2PX         0.00000   0.02864   0.00027   0.33685  -0.04568
  22        2PY         0.00000  -0.00027   0.02864   0.04568   0.33685
  23        2PZ        -0.30617   0.00000   0.00000   0.00000   0.00000
  24        3S          0.49989   0.00000   0.00000   0.00000   0.00000
  25        3PX         0.00000   1.24538   0.01181  -0.23037   0.03124
  26        3PY         0.00000  -0.01181   1.24538  -0.03124  -0.23037
  27        3PZ         0.33822   0.00000   0.00000   0.00000   0.00000
  28        4S         -0.45685   0.00000   0.00000   0.00000   0.00000
  29        4PX         0.00000   0.41612   0.00395  -0.30129   0.04086
  30        4PY         0.00000  -0.00395   0.41612  -0.04086  -0.30129
  31        4PZ        -0.06831   0.00000   0.00000   0.00000   0.00000
  32        5D 0       -0.38117   0.00000   0.00000   0.00000   0.00000
  33        5D+1        0.00000   0.05541   0.00053   0.40682  -0.05517
  34        5D-1        0.00000  -0.00053   0.05541   0.05517   0.40682
  35        5D+2        0.00000  -0.00369   0.38878   0.07884   0.58144
  36        5D-2        0.00000   0.38878   0.00369   0.58144  -0.07884
  37 3   H  1S         -0.52660   0.00532  -0.56146   0.05329   0.39298
  38        2S          0.62985  -0.01726   1.82050  -0.07333  -0.54078
  39        3S         -0.13991   0.00454  -0.47914   0.03557   0.26230
  40        4PX         0.00000   0.08542   0.00081  -0.50002   0.06780
  41        4PY         0.15212   0.00806  -0.85007  -0.00721  -0.05315
  42        4PZ         0.15041   0.00392  -0.41337  -0.04712  -0.34749
  43 4   H  1S         -0.52660  -0.48890   0.27612   0.31368  -0.24264
  44        2S          0.62985   1.58523  -0.89531  -0.43167   0.33390
  45        3S         -0.13991  -0.41722   0.23563   0.20937  -0.16195
  46        4PX         0.13174  -0.62003   0.39924  -0.19111  -0.17115
  47        4PY        -0.07606   0.40649  -0.14461  -0.24616  -0.36207
  48        4PZ         0.15041  -0.35995   0.20329  -0.27738   0.21455
  49 5   H  1S         -0.52660   0.48358   0.28534  -0.36697  -0.15034
  50        2S          0.62985  -1.56797  -0.92520   0.50500   0.20688
  51        3S         -0.13991   0.41267   0.24350  -0.24494  -0.10035
  52        4PX        -0.13174  -0.61235  -0.41092  -0.13863   0.21586
  53        4PY        -0.07606  -0.40367  -0.15229   0.14085  -0.41455
  54        4PZ         0.15041   0.35603   0.21008   0.32450   0.13294
  55 6   H  1S         -0.52660   0.00532  -0.56146   0.05329   0.39298
  56        2S          0.62985  -0.01726   1.82050  -0.07333  -0.54078
  57        3S         -0.13991   0.00454  -0.47914   0.03557   0.26230
  58        4PX         0.00000  -0.08542  -0.00081   0.50002  -0.06780
  59        4PY        -0.15212  -0.00806   0.85007   0.00721   0.05315
  60        4PZ        -0.15041  -0.00392   0.41337   0.04712   0.34749
  61 7   H  1S         -0.52660  -0.48890   0.27612   0.31368  -0.24264
  62        2S          0.62985   1.58523  -0.89531  -0.43167   0.33390
  63        3S         -0.13991  -0.41722   0.23563   0.20937  -0.16195
  64        4PX        -0.13174   0.62003  -0.39924   0.19111   0.17115
  65        4PY         0.07606  -0.40649   0.14461   0.24616   0.36207
  66        4PZ        -0.15041   0.35995  -0.20329   0.27738  -0.21455
  67 8   H  1S         -0.52660   0.48358   0.28534  -0.36697  -0.15034
  68        2S          0.62985  -1.56797  -0.92520   0.50500   0.20688
  69        3S         -0.13991   0.41267   0.24350  -0.24494  -0.10035
  70        4PX         0.13174   0.61235   0.41092   0.13863  -0.21586
  71        4PY         0.07606   0.40367   0.15229  -0.14085   0.41455
  72        4PZ        -0.15041  -0.35603  -0.21008  -0.32450  -0.13294
                          56        57        58        59        60
[...]
  Atom  AN      X      Y      Z        X      Y      Z        X      Y      Z
     1   6     0.00   0.00   0.09     0.00   0.00  -0.10    -0.02   0.00   0.00
     2   6     0.00   0.00   0.09     0.00   0.00   0.10     0.02   0.00   0.00
     3   1     0.00   0.16  -0.37     0.00  -0.17   0.37     0.48   0.00   0.00
     4   1     0.14  -0.08  -0.37    -0.15   0.09   0.37     0.03   0.26   0.25
     5   1    -0.14  -0.08  -0.37     0.15   0.09   0.37     0.03  -0.26  -0.25
     6   1     0.00   0.16  -0.37     0.00   0.17  -0.37    -0.48   0.00   0.00
     7   1     0.14  -0.08  -0.37     0.15  -0.09  -0.37    -0.03  -0.26  -0.25
     8   1    -0.14  -0.08  -0.37    -0.15  -0.09  -0.37    -0.03   0.26   0.25
                    10                     11                     12
                    EG                     EU                     EU
 Frequencies --  1504.9064              1507.5729              1507.5744
 Red. masses --     1.0180                 1.0618                 1.0618
 Frc consts  --     1.3584                 1.4219                 1.4219
 IR Inten    --     0.0000                10.2463                10.2493
  Atom  AN      X      Y      Z        X      Y      Z        X      Y      Z
     1   6     0.00  -0.02   0.00    -0.05   0.00   0.00     0.00   0.05   0.00
     2   6     0.00   0.02   0.00    -0.05   0.00   0.00     0.00   0.05   0.00
     3   1     0.00  -0.12   0.29     0.52   0.00   0.00     0.00   0.12  -0.23
     4   1     0.26   0.33  -0.15     0.04   0.28   0.20    -0.28  -0.36   0.11
     5   1    -0.26   0.33  -0.15     0.04  -0.28  -0.20     0.28  -0.36   0.11
     6   1     0.00   0.12  -0.29     0.52   0.00   0.00     0.00   0.12  -0.23
     7   1    -0.26  -0.33   0.15     0.04   0.28   0.20    -0.28  -0.36   0.11
     8   1     0.26  -0.33   0.15     0.04  -0.28  -0.20     0.28  -0.36   0.11
                    13                     14                     15
                    A1G                    A2U                    EG
 Frequencies --  3025.4859              3026.1107              3072.0111
 Red. masses --     1.0360                 1.0339                 1.1014
 Frc consts  --     5.5871                 5.5784                 6.1238
 IR Inten    --     0.0000                63.1680                 0.0000
  Atom  AN      X      Y      Z        X      Y      Z        X      Y      Z
     1   6     0.00   0.00   0.04     0.00   0.00  -0.03     0.00  -0.07   0.00
     2   6     0.00   0.00  -0.04     0.00   0.00  -0.03     0.00   0.07   0.00
     3   1     0.00  -0.38  -0.14     0.00   0.38   0.14     0.00   0.54   0.20
     4   1    -0.33   0.19  -0.14     0.33  -0.19   0.14    -0.24   0.12  -0.10
     5   1     0.33   0.19  -0.14    -0.33  -0.19   0.14     0.24   0.12  -0.10
     6   1     0.00   0.38   0.14     0.00   0.38   0.14     0.00  -0.54  -0.20
     7   1     0.33  -0.19   0.14     0.33  -0.19   0.14     0.24  -0.12   0.10
     8   1    -0.33  -0.19   0.14    -0.33  -0.19   0.14    -0.24  -0.12   0.10
                    16                     17                     18
                    EG                     EU                     EU
 Frequencies --  3072.0111              3097.3348              3097.3364
 Red. masses --     1.1014                 1.1026                 1.1026
 Frc consts  --     6.1238                 6.2320                 6.2320
 IR Inten    --     0.0000                76.2949                76.2850
  Atom  AN      X      Y      Z        X      Y      Z        X      Y      Z
     1   6    -0.07   0.00   0.00     0.07   0.00   0.00     0.00   0.07   0.00
     2   6     0.07   0.00   0.00     0.07   0.00   0.00     0.00   0.07   0.00
     3   1    -0.02   0.00   0.00     0.01   0.00   0.00     0.00  -0.54  -0.21
     4   1     0.40  -0.24   0.18    -0.40   0.24  -0.18     0.24  -0.12   0.10
     5   1     0.40   0.24  -0.18    -0.40  -0.24   0.18    -0.24  -0.12   0.10
     6   1     0.02   0.00   0.00     0.01   0.00   0.00     0.00  -0.54  -0.21
     7   1    -0.40   0.24  -0.18    -0.40   0.24  -0.18     0.24  -0.12   0.10
     8   1    -0.40  -0.24   0.18    -0.40  -0.24   0.18    -0.24  -0.12   0.10

 -------------------
 - Thermochemistry -
 -------------------
 Temperature   298.150 Kelvin.  Pressure   1.00000 Atm.
 Atom     1 has atomic number  6 and mass  12.00000
 Atom     2 has atomic number  6 and mass  12.00000
 Atom     3 has atomic number  1 and mass   1.00783
 Atom     4 has atomic number  1 and mass   1.00783
 Atom     5 has atomic number  1 and mass   1.00783
 Atom     6 has atomic number  1 and mass   1.00783
 Atom     7 has atomic number  1 and mass   1.00783
 Atom     8 has atomic number  1 and mass   1.00783
 Molecular mass:    30.04695 amu.
 Principal axes and moments of inertia in atomic units:
                           1         2         3
     Eigenvalues --    22.40804  90.63038  90.63038
           X            0.00000   0.94868   0.31623
           Y            0.00000  -0.31623   0.94868
           Z            1.00000   0.00000   0.00000
 This molecule is a prolate symmetric top.
 Rotational symmetry number  6.
 Rotational temperatures (Kelvin)      3.86530     0.95568     0.95568
 Rotational constants (GHZ):          80.53990    19.91320    19.91320
 Zero-point vibrational energy     195270.9 (Joules/Mol)
                                   46.67087 (Kcal/Mol)
 Warning -- explicit consideration of   1 degrees of freedom as
           vibrations may cause significant error
 Vibrational temperatures:    443.45  1190.65  1190.65  1434.05  1754.03
          (Kelvin)           1754.04  2026.79  2049.60  2165.22  2165.22
                             2169.06  2169.06  4352.99  4353.89  4419.93
                             4419.93  4456.37  4456.37
 
 Zero-point correction=                           0.074375 (Hartree/Particle)
 Thermal correction to Energy=                    0.077860
 Thermal correction to Enthalpy=                  0.078805
 Thermal correction to Gibbs Free Energy=         0.052950
 Sum of electronic and zero-point Energies=            -79.781885
 Sum of electronic and thermal Energies=               -79.778399
 Sum of electronic and thermal Enthalpies=             -79.777455
 Sum of electronic and thermal Free Energies=          -79.803310
 
                     E (Thermal)             CV                S
                      KCal/Mol        Cal/Mol-Kelvin    Cal/Mol-Kelvin
 Total                   48.858             10.093             54.416
 Electronic               0.000              0.000              0.000
 Translational            0.889              2.981             36.134
 Rotational               0.889              2.981             16.288
 Vibrational             47.081              4.131              1.995
 Vibration     1          0.698              1.658              1.372
                       Q            Log10(Q)             Ln(Q)
 Total Bot       0.441482D-24        -24.355087        -56.079660
 Total V=0       0.715905D+10          9.854856         22.691644
 Vib (Bot)       0.842532D-34        -34.074414        -78.459237
 Vib (Bot)    1  0.614143D+00         -0.211731         -0.487528
 Vib (V=0)       0.136625D+01          0.135529          0.312067
 Vib (V=0)    1  0.129194D+01          0.111243          0.256146
 Electronic      0.100000D+01          0.000000          0.000000
 Translational   0.647375D+07          6.811156         15.683266
 Rotational      0.809414D+03          2.908171          6.696311
 ***** Axes restored to original set *****
 -------------------------------------------------------------------
 Center     Atomic                   Forces (Hartrees/Bohr)
 Number     Number              X              Y              Z
 -------------------------------------------------------------------
      1        6           0.000000000    0.000000000    0.000263410
      2        6           0.000000000    0.000000000   -0.000263410
      3        1          -0.000050653    0.000000000   -0.000064599
      4        1           0.000025326   -0.000043867   -0.000064599
      5        1           0.000025326    0.000043867   -0.000064599
      6        1           0.000050653    0.000000000    0.000064599
      7        1          -0.000025326    0.000043867    0.000064599
      8        1          -0.000025326   -0.000043867    0.000064599
 -------------------------------------------------------------------
 Cartesian Forces:  Max     0.000263410 RMS     0.000086410

 GradGradGradGradGradGradGradGradGradGradGradGradGradGradGradGradGradGrad
 Berny optimization.
 Internal  Forces:  Max     0.000081048 RMS     0.000054217
 Search for a local minimum.
 Step number   1 out of a maximum of    2
 All quantities printed in internal units (Hartrees-Bohrs-Radians)
 Second derivative matrix not updated -- analytic derivatives used.
 ITU=  0
     Eigenvalues ---    0.00222   0.04479   0.04479   0.04662   0.04662
     Eigenvalues ---    0.11854   0.12309   0.12309   0.12378   0.17604
     Eigenvalues ---    0.17604   0.29950   0.32936   0.32936   0.33217
     Eigenvalues ---    0.33217   0.34109   0.34330
 Angle between quadratic step and forces=  10.63 degrees.
 Linear search not attempted -- first point.
 Iteration  1 RMS(Cart)=  0.00046362 RMS(Int)=  0.00000023
 Iteration  2 RMS(Cart)=  0.00000021 RMS(Int)=  0.00000012
 ClnCor:  largest displacement from symmetrization is 5.71D-09 for atom     5.
 Variable       Old X    -DE/DX   Delta X   Delta X   Delta X     New X
                                 (Linear)    (Quad)   (Total)
    R1        2.89282  -0.00007   0.00000  -0.00068  -0.00068   2.89215
    R2        2.06656  -0.00002   0.00000  -0.00002  -0.00002   2.06654
    R3        2.06656  -0.00002   0.00000  -0.00002  -0.00002   2.06654
    R4        2.06656  -0.00002   0.00000  -0.00002  -0.00002   2.06654
    R5        2.06656  -0.00002   0.00000  -0.00002  -0.00002   2.06654
    R6        2.06656  -0.00002   0.00000  -0.00002  -0.00002   2.06654
    R7        2.06656  -0.00002   0.00000  -0.00002  -0.00002   2.06654
    A1        1.94306   0.00008   0.00000   0.00062   0.00062   1.94368
    A2        1.94306   0.00008   0.00000   0.00062   0.00062   1.94368
    A3        1.94306   0.00008   0.00000   0.00062   0.00062   1.94368
    A4        1.87712  -0.00008   0.00000  -0.00066  -0.00066   1.87646
    A5        1.87712  -0.00008   0.00000  -0.00066  -0.00066   1.87646
    A6        1.87712  -0.00008   0.00000  -0.00066  -0.00066   1.87646
    A7        1.94306   0.00008   0.00000   0.00062   0.00062   1.94368
    A8        1.94306   0.00008   0.00000   0.00062   0.00062   1.94368
    A9        1.94306   0.00008   0.00000   0.00062   0.00062   1.94368
   A10        1.87712  -0.00008   0.00000  -0.00066  -0.00066   1.87646
   A11        1.87712  -0.00008   0.00000  -0.00066  -0.00066   1.87646
   A12        1.87712  -0.00008   0.00000  -0.00066  -0.00066   1.87646
    D1        3.14159   0.00000   0.00000   0.00000   0.00000   3.14159
    D2       -1.04720   0.00000   0.00000   0.00000   0.00000  -1.04720
    D3        1.04720   0.00000   0.00000   0.00000   0.00000   1.04720
    D4        1.04720   0.00000   0.00000   0.00000   0.00000   1.04720
    D5       -3.14159   0.00000   0.00000   0.00000   0.00000   3.14159
    D6       -1.04720   0.00000   0.00000   0.00000   0.00000  -1.04720
    D7       -1.04720   0.00000   0.00000   0.00000   0.00000  -1.04720
    D8        1.04720   0.00000   0.00000   0.00000   0.00000   1.04720
    D9        3.14159   0.00000   0.00000   0.00000   0.00000   3.14159
         Item               Value     Threshold  Converged?
 Maximum Force            0.000081     0.000450     YES
 RMS     Force            0.000054     0.000300     YES
 Maximum Displacement     0.000852     0.001800     YES
 RMS     Displacement     0.000464     0.001200     YES
 Predicted change in Energy=-3.286083D-07
 Optimization completed.
    -- Stationary point found.
                           ----------------------------
                           !   Optimized Parameters   !
                           ! (Angstroms and Degrees)  !
 --------------------------                            --------------------------
 ! Name  Definition              Value          Derivative Info.                !
 --------------------------------------------------------------------------------
 ! R1    R(1,2)                  1.5308         -DE/DX =   -0.0001              !
 ! R2    R(1,3)                  1.0936         -DE/DX =    0.0                 !
 ! R3    R(1,4)                  1.0936         -DE/DX =    0.0                 !
 ! R4    R(1,5)                  1.0936         -DE/DX =    0.0                 !
 ! R5    R(2,6)                  1.0936         -DE/DX =    0.0                 !
 ! R6    R(2,7)                  1.0936         -DE/DX =    0.0                 !
 ! R7    R(2,8)                  1.0936         -DE/DX =    0.0                 !
 ! A1    A(2,1,3)              111.3291         -DE/DX =    0.0001              !
 ! A2    A(2,1,4)              111.3291         -DE/DX =    0.0001              !
 ! A3    A(2,1,5)              111.3291         -DE/DX =    0.0001              !
 ! A4    A(3,1,4)              107.5512         -DE/DX =   -0.0001              !
 ! A5    A(3,1,5)              107.5512         -DE/DX =   -0.0001              !
 ! A6    A(4,1,5)              107.5512         -DE/DX =   -0.0001              !
 ! A7    A(1,2,6)              111.3291         -DE/DX =    0.0001              !
 ! A8    A(1,2,7)              111.3291         -DE/DX =    0.0001              !
 ! A9    A(1,2,8)              111.3291         -DE/DX =    0.0001              !
 ! A10   A(6,2,7)              107.5512         -DE/DX =   -0.0001              !
 ! A11   A(6,2,8)              107.5512         -DE/DX =   -0.0001              !
 ! A12   A(7,2,8)              107.5512         -DE/DX =   -0.0001              !
 ! D1    D(3,1,2,6)            180.0            -DE/DX =    0.0                 !
 ! D2    D(3,1,2,7)            -60.0            -DE/DX =    0.0                 !
 ! D3    D(3,1,2,8)             60.0            -DE/DX =    0.0                 !
 ! D4    D(4,1,2,6)             60.0            -DE/DX =    0.0                 !
 ! D5    D(4,1,2,7)            180.0            -DE/DX =    0.0                 !
 ! D6    D(4,1,2,8)            -60.0            -DE/DX =    0.0                 !
 ! D7    D(5,1,2,6)            -60.0            -DE/DX =    0.0                 !
 ! D8    D(5,1,2,7)             60.0            -DE/DX =    0.0                 !
 ! D9    D(5,1,2,8)            180.0            -DE/DX =    0.0                 !
 --------------------------------------------------------------------------------
 GradGradGradGradGradGradGradGradGradGradGradGradGradGradGradGradGradGrad


 Test job not archived.
 1\1\GINC-TERMINUS\Freq\RB3LYP\6-311G(2d,d,p)\C2H6\SEBASTIAN\30-Apr-202
 2\0\\#N Geom=AllCheck Guess=TCheck SCRF=Check Test GenChk RB3LYP/6-311
 G(2d,d,p) Freq\\prueba para etano\\0,1\C,0.,0.,-0.0154077706\C,0.,0.,1
 .5154077706\H,1.0186731604,0.0000000002,-0.4131670876\H,-0.5093365804,
 0.8821968349,-0.4131670876\H,-0.50933658,-0.8821968351,-0.4131670876\H
 ,-1.0186731604,-0.0000000002,1.9131670876\H,0.5093365804,-0.8821968349
 ,1.9131670876\H,0.50933658,0.8821968351,1.9131670876\\Version=EM64L-G0
 9RevB.01\State=1-A1G\HF=-79.8562597\RMSD=1.702e-10\RMSF=8.641e-05\Zero
 Point=0.0743748\Thermal=0.0778604\Dipole=0.,0.,0.\DipoleDeriv=0.113253
 ,0.,-0.000037,0.,0.1132808,0.,0.0000034,0.,0.0617372,0.113253,0.,-0.00
 0037,0.,0.1132808,0.,0.0000034,0.,0.0617372,-0.1458137,0.,0.1031328,0.
 ,0.0703088,0.,0.0663786,0.,-0.0205878,0.0162793,0.093583,-0.0515571,0.
 0935848,-0.0917889,0.0893042,-0.0331901,0.057496,-0.0205812,0.0162793,
 -0.093583,-0.0515571,-0.0935848,-0.0917889,-0.0893042,-0.0331901,-0.05
 7496,-0.0205812,-0.1458137,0.,0.1031328,0.,0.0703088,0.,0.0663786,0.,-
 0.0205878,0.0162793,0.093583,-0.0515571,0.0935848,-0.0917889,0.0893042
 ,-0.0331901,0.057496,-0.0205812,0.0162793,-0.093583,-0.0515571,-0.0935
 848,-0.0917889,-0.0893042,-0.0331901,-0.057496,-0.0205812\Polar=24.557
 9911,0.,24.5582427,0.000134,0.,27.1358727\PG=D03D [C3(C1.C1),3SGD(H2)]
 \NImag=0\\0.56095717,0.,0.56095506,-0.00000161,0.,0.46491165,-0.078858
 60,0.,-0.00000138,0.56095717,0.,-0.07886354,0.,0.,0.56095506,-0.000001
 38,0.,-0.19379860,-0.00000161,0.,0.46491165,-0.27508456,0.,0.08470437,
 0.00235367,0.,-0.00065449,0.29782237,0.,-0.04813221,0.,0.,-0.00053456,
 0.,0.,0.04658493,0.08345145,0.,-0.07757576,0.03278324,0.,-0.01279596,-
 0.09326363,0.,0.08722397,-0.10487080,0.09827288,-0.04235200,0.00018748
 ,-0.00125099,0.00032780,-0.01397856,0.02553655,-0.01091725,0.10939429,
 0.09827275,-0.21834591,0.07335536,-0.00125086,0.00163229,-0.00056694,-
 0.00040561,0.00053080,-0.00119452,-0.10878900,0.23501301,-0.04172506,0
 .07227007,-0.07757556,-0.01639154,0.02839092,-0.01279564,0.00442414,-0
 .01005188,0.00365184,0.04663182,-0.08076868,0.08722397,-0.10487080,-0.
 09827288,-0.04235200,0.00018748,0.00125099,0.00032780,-0.01397856,-0.0
 2553655,-0.01091725,0.00778548,0.01297108,0.00649311,0.10939429,-0.098
 27275,-0.21834591,-0.07335536,0.00125086,0.00163229,0.00056694,0.00040
 561,0.00053080,0.00119452,-0.01297108,-0.02123324,-0.00885735,0.108789
 00,0.23501301,-0.04172506,-0.07227007,-0.07757556,-0.01639154,-0.02839
 092,-0.01279564,0.00442414,0.01005188,0.00365184,0.00649311,0.00885735
 ,0.00365184,0.04663182,0.08076868,0.08722397,0.00235367,0.,-0.00065449
 ,-0.27508456,0.,0.08470437,0.00180531,0.,-0.00071916,0.00052979,-0.000
 33066,0.00054267,0.00052979,0.00033066,0.00054267,0.29782237,0.,-0.000
 53456,0.,0.,-0.04813221,0.,0.,0.00094166,0.,-0.00051825,0.00003967,0.0
 0007279,0.00051825,0.00003967,-0.00007279,0.,0.04658493,0.03278324,0.,
 -0.01279596,0.08345145,0.,-0.07757576,-0.00071916,0.,-0.00697589,-0.00
 020830,0.00050637,0.00140999,-0.00020830,-0.00050637,0.00140999,-0.093
 26363,0.,0.08722397,0.00018748,-0.00125099,0.00032780,-0.10487080,0.09
 827288,-0.04235200,0.00052979,-0.00051825,-0.00020830,0.00115757,-0.00
 037397,0.00035958,-0.00020539,0.00009379,-0.00033438,-0.01397856,0.025
 53655,-0.01091725,0.10939429,-0.00125086,0.00163229,-0.00056694,0.0982
 7275,-0.21834591,0.07335536,-0.00033066,0.00003967,0.00050637,-0.00037
 397,0.00158939,-0.00062281,-0.00009379,0.00077485,0.00043357,-0.000405
 61,0.00053080,-0.00119452,-0.10878900,0.23501301,-0.01639154,0.0283909
 2,-0.01279564,-0.04172506,0.07227007,-0.07757556,0.00054267,0.00007279
 ,0.00140999,0.00035958,-0.00062281,-0.00697589,-0.00033438,-0.00043357
 ,0.00140999,0.00442414,-0.01005188,0.00365184,0.04663182,-0.08076868,0
 .08722397,0.00018748,0.00125099,0.00032780,-0.10487080,-0.09827288,-0.
 04235200,0.00052979,0.00051825,-0.00020830,-0.00020539,-0.00009379,-0.
 00033438,0.00115757,0.00037397,0.00035958,-0.01397856,-0.02553655,-0.0
 1091725,0.00778548,0.01297108,0.00649311,0.10939429,0.00125086,0.00163
 229,0.00056694,-0.09827275,-0.21834591,-0.07335536,0.00033066,0.000039
 67,-0.00050637,0.00009379,0.00077485,-0.00043357,0.00037397,0.00158939
 ,0.00062281,0.00040561,0.00053080,0.00119452,-0.01297108,-0.02123324,-
 0.00885735,0.10878900,0.23501301,-0.01639154,-0.02839092,-0.01279564,-
 0.04172506,-0.07227007,-0.07757556,0.00054267,-0.00007279,0.00140999,-
 0.00033438,0.00043357,0.00140999,0.00035958,0.00062281,-0.00697589,0.0
 0442414,0.01005188,0.00365184,0.00649311,0.00885735,0.00365184,0.04663
 182,0.08076868,0.08722397\\0.,0.,-0.00026341,0.,0.,0.00026341,0.000050
 65,0.,0.00006460,-0.00002533,0.00004387,0.00006460,-0.00002533,-0.0000
 4387,0.00006460,-0.00005065,0.,-0.00006460,0.00002533,-0.00004387,-0.0
 0006460,0.00002533,0.00004387,-0.00006460\\\@


 SUPPORT THE RIGHT TO ARM BEARS!
 (ADD A CLAWS TO THE BILL OF RIGHTS)
 Job cpu time:  0 days  0 hours  0 minutes 13.5 seconds.
 File lengths (MBytes):  RWF=      9 Int=      0 D2E=      0 Chk=      1 Scr=      1
 Normal termination of Gaussian 09 at Sat Apr 30 16:22:19 2022.
