 Entering Gaussian System, Link 0=g09
 Input=metilamina-v4-reestructura.inp
 Output=metilamina-v4-reestructura.log
 Initial command:
 /usr/local/g09/l1.exe /home/g09scr/Gau-13105.inp -scrdir=/home/g09scr/
 Entering Link 1 = /usr/local/g09/l1.exe PID=     13107.
  
 Copyright (c) 1988,1990,1992,1993,1995,1998,2003,2009,2010,
            Gaussian, Inc.  All Rights Reserved.
  
 This is part of the Gaussian(R) 09 program.  It is based on
 the Gaussian(R) 03 system (copyright 2003, Gaussian, Inc.),
 the Gaussian(R) 98 system (copyright 1998, Gaussian, Inc.),
 the Gaussian(R) 94 system (copyright 1995, Gaussian, Inc.),
 the Gaussian 92(TM) system (copyright 1992, Gaussian, Inc.),
 the Gaussian 90(TM) system (copyright 1990, Gaussian, Inc.),
 the Gaussian 88(TM) system (copyright 1988, Gaussian, Inc.),
 the Gaussian 86(TM) system (copyright 1986, Carnegie Mellon
 University), and the Gaussian 82(TM) system (copyright 1983,
 Carnegie Mellon University). Gaussian is a federally registered
 trademark of Gaussian, Inc.
  
 This software contains proprietary and confidential information,
 including trade secrets, belonging to Gaussian, Inc.
  
 This software is provided under written license and may be
 used, copied, transmitted, or stored only in accord with that
 written license.
  
 The following legend is applicable only to US Government
 contracts under FAR:
  
                    RESTRICTED RIGHTS LEGEND
  
 Use, reproduction and disclosure by the US Government is
 subject to restrictions as set forth in subparagraphs (a)
 and (c) of the Commercial Computer Software - Restricted
 Rights clause in FAR 52.227-19.
  
 Gaussian, Inc.
 340 Quinnipiac St., Bldg. 40, Wallingford CT 06492
  
  
 ---------------------------------------------------------------
 Warning -- This program may not be used in any manner that
 competes with the business of Gaussian, Inc. or will provide
 assistance to any competitor of Gaussian, Inc.  The licensee
 of this program is prohibited from giving any competitor of
 Gaussian, Inc. access to this program.  By using this program,
 the user acknowledges that Gaussian, Inc. is engaged in the
 business of creating and licensing software in the field of
 computational chemistry and represents and warrants to the
 licensee that it is not a competitor of Gaussian, Inc. and that
 it will not use this program in any manner prohibited above.
 ---------------------------------------------------------------
  

 Cite this work as:
 Gaussian 09, Revision B.01,
 M. J. Frisch, G. W. Trucks, H. B. Schlegel, G. E. Scuseria, 
 M. A. Robb, J. R. Cheeseman, G. Scalmani, V. Barone, B. Mennucci, 
 G. A. Petersson, H. Nakatsuji, M. Caricato, X. Li, H. P. Hratchian, 
 A. F. Izmaylov, J. Bloino, G. Zheng, J. L. Sonnenberg, M. Hada, 
 M. Ehara, K. Toyota, R. Fukuda, J. Hasegawa, M. Ishida, T. Nakajima, 
 Y. Honda, O. Kitao, H. Nakai, T. Vreven, J. A. Montgomery, Jr., 
 J. E. Peralta, F. Ogliaro, M. Bearpark, J. J. Heyd, E. Brothers, 
 K. N. Kudin, V. N. Staroverov, T. Keith, R. Kobayashi, J. Normand, 
 K. Raghavachari, A. Rendell, J. C. Burant, S. S. Iyengar, J. Tomasi, 
 M. Cossi, N. Rega, J. M. Millam, M. Klene, J. E. Knox, J. B. Cross, 
 V. Bakken, C. Adamo, J. Jaramillo, R. Gomperts, R. E. Stratmann, 
 O. Yazyev, A. J. Austin, R. Cammi, C. Pomelli, J. W. Ochterski, 
 R. L. Martin, K. Morokuma, V. G. Zakrzewski, G. A. Voth, 
 P. Salvador, J. J. Dannenberg, S. Dapprich, A. D. Daniels, 
 O. Farkas, J. B. Foresman, J. V. Ortiz, J. Cioslowski, 
 and D. J. Fox, Gaussian, Inc., Wallingford CT, 2010.
 
 ******************************************
 Gaussian 09:  EM64L-G09RevB.01 12-Aug-2010
                 1-May-2022 
 ******************************************
 %nprocshared=4
 Will use up to    4 processors via shared memory.
 %mem=30gb
 %NoSave
 %Chk=metilamina-v3.chk
 ----------------------------------------------------------------------
 #MaxDisk=2600gb #B3LyP/6-311g(2d,d,p) fopt freq gfinput iop(6/7=3) tes
 t
 ----------------------------------------------------------------------
 1/14=-1,18=20,19=15,26=3,38=1/1,3;
 2/9=110,12=2,14=103,17=6,18=5,40=1/2;
 3/5=4,6=6,7=700,11=2,16=1,24=10,25=1,30=1,71=1,74=-5/1,2,3;
 4//1;
 5/5=2,38=5/2;
 6/7=3,8=2,9=2,10=2,28=1/1;
 7//1,2,3,16;
 1/14=-1,18=20,19=15/3(2);
 2/9=110/2;
 99//99;
 2/9=110/2;
 3/5=4,6=6,7=700,11=2,16=1,25=1,30=1,71=1,74=-5/1,2,3;
 4/5=5,16=3/1;
 5/5=2,38=5/2;
 7//1,2,3,16;
 1/14=-1,18=20,19=15/3(-5);
 2/9=110/2;
 6/7=3,8=2,9=2,10=2,19=2,28=1/1;
 99/9=1/99;
 ----------------------
 prueba para metilamina
 ----------------------
 Symbolic Z-matrix:
 Charge =  0 Multiplicity = 1
 h
 c                    1    ch2
 h                    2    hc3      1    hch3
 h                    2    hc4      1    hch4     3    dih4     0
 n                    2    nc5      1    nch5     3    dih5     0
 h                    5    hn6      2    hnc6     1    dih6     0
 h                    5    hn7      2    hnc7     1    dih7     0
       Variables:
  ch2                   1.089                    
  hc3                   1.089                    
  hch3                109.471                    
  hc4                   1.089                    
  hch4                109.471                    
  dih4                120.                       
  nc5                   1.44                     
  nch5                109.471                    
  dih5                240.                       
  hn6                   1.008                    
  hnc6                109.471                    
  dih6                180.                       
  hn7                   1.008                    
  hnc7                109.471                    
  dih7                300.                       
 
     5 tetrahedral angles replaced.

 GradGradGradGradGradGradGradGradGradGradGradGradGradGradGradGradGradGrad
 Berny optimization.
 Initialization pass.
                           ----------------------------
                           !    Initial Parameters    !
                           ! (Angstroms and Degrees)  !
 --------------------------                            --------------------------
 ! Name  Definition              Value          Derivative Info.                !
 --------------------------------------------------------------------------------
 ! R1    R(1,2)                  1.089          estimate D2E/DX2                !
 ! R2    R(2,3)                  1.089          estimate D2E/DX2                !
 ! R3    R(2,4)                  1.089          estimate D2E/DX2                !
 ! R4    R(2,5)                  1.44           estimate D2E/DX2                !
 ! R5    R(5,6)                  1.008          estimate D2E/DX2                !
 ! R6    R(5,7)                  1.008          estimate D2E/DX2                !
 ! A1    A(1,2,3)              109.4712         estimate D2E/DX2                !
 ! A2    A(1,2,4)              109.4712         estimate D2E/DX2                !
 ! A3    A(1,2,5)              109.4712         estimate D2E/DX2                !
 ! A4    A(3,2,4)              109.4712         estimate D2E/DX2                !
 ! A5    A(3,2,5)              109.4712         estimate D2E/DX2                !
 ! A6    A(4,2,5)              109.4712         estimate D2E/DX2                !
 ! A7    A(2,5,6)              109.4712         estimate D2E/DX2                !
 ! A8    A(2,5,7)              109.4712         estimate D2E/DX2                !
 ! A9    A(6,5,7)              109.4712         estimate D2E/DX2                !
 ! D1    D(1,2,5,6)            180.0            estimate D2E/DX2                !
 ! D2    D(1,2,5,7)            -60.0            estimate D2E/DX2                !
 ! D3    D(3,2,5,6)             60.0            estimate D2E/DX2                !
 ! D4    D(3,2,5,7)            180.0            estimate D2E/DX2                !
 ! D5    D(4,2,5,6)            -60.0            estimate D2E/DX2                !
 ! D6    D(4,2,5,7)             60.0            estimate D2E/DX2                !
 --------------------------------------------------------------------------------
 Trust Radius=3.00D-01 FncErr=1.00D-07 GrdErr=1.00D-06
 Number of steps in this run=     31 maximum allowed number of steps=    100.
 GradGradGradGradGradGradGradGradGradGradGradGradGradGradGradGradGradGrad

                          Input orientation:                          
 ---------------------------------------------------------------------
 Center     Atomic      Atomic             Coordinates (Angstroms)
 Number     Number       Type             X           Y           Z
 ---------------------------------------------------------------------
      1          1           0        0.000000    0.000000    0.000000
      2          6           0        0.000000    0.000000    1.089000
      3          1           0        1.026719    0.000000    1.452000
      4          1           0       -0.513360    0.889165    1.452000
      5          7           0       -0.678823   -1.175755    1.569000
      6          1           0       -0.678823   -1.175755    2.577000
      7          1           0       -1.629174   -1.175755    1.233000
 ---------------------------------------------------------------------
                    Distance matrix (angstroms):
                    1          2          3          4          5
     1  H    0.000000
     2  C    1.089000   0.000000
     3  H    1.778330   1.089000   0.000000
     4  H    1.778330   1.089000   1.778330   0.000000
     5  N    2.074840   1.440000   2.074840   2.074840   0.000000
     6  H    2.912753   2.014285   2.357307   2.357307   1.008000
     7  H    2.357307   2.014285   2.912753   2.357307   1.008000
                    6          7
     6  H    0.000000
     7  H    1.646057   0.000000
 Stoichiometry    CH5N
 Framework group  CS[SG(CHN),X(H4)]
 Deg. of freedom     9
 Full point group                 CS      NOp   2
 Largest Abelian subgroup         CS      NOp   2
 Largest concise Abelian subgroup CS      NOp   2
                         Standard orientation:                         
 ---------------------------------------------------------------------
 Center     Atomic      Atomic             Coordinates (Angstroms)
 Number     Number       Type             X           Y           Z
 ---------------------------------------------------------------------
      1          1           0       -0.566157    1.059833    0.889165
      2          6           0       -0.052797    0.696833    0.000000
      3          1           0       -0.566157    1.059833   -0.889165
      4          1           0        0.973922    1.059833    0.000000
      5          7           0       -0.052797   -0.743167    0.000000
      6          1           0        0.422378   -1.079167   -0.823029
      7          1           0        0.422378   -1.079167    0.823029
 ---------------------------------------------------------------------
 Rotational constants (GHZ):    102.7174959     23.7375723     22.6748581
 Standard basis: 6-311G(2d,d,p) (5D, 7F)
 AO basis set in the form of general basis input (Overlap normalization):
      1 0
 S   3 1.00       0.000000000000
      0.3386500000D+02  0.2549381454D-01
      0.5094790000D+01  0.1903731086D+00
      0.1158790000D+01  0.8521614860D+00
 S   1 1.00       0.000000000000
      0.3258400000D+00  0.1000000000D+01
 S   1 1.00       0.000000000000
      0.1027410000D+00  0.1000000000D+01
 P   1 1.00       0.000000000000
      0.7500000000D+00  0.1000000000D+01
 ****
      2 0
 S   6 1.00       0.000000000000
      0.4563240000D+04  0.1966650249D-02
      0.6820240000D+03  0.1523060193D-01
      0.1549730000D+03  0.7612690966D-01
      0.4445530000D+02  0.2608010331D+00
      0.1302900000D+02  0.6164620782D+00
      0.1827730000D+01  0.2210060280D+00
 SP   3 1.00       0.000000000000
      0.2096420000D+02  0.1146600807D+00  0.4024869267D-01
      0.4803310000D+01  0.9199996477D+00  0.2375939567D+00
      0.1459330000D+01 -0.3030682134D-02  0.8158538515D+00
 SP   1 1.00       0.000000000000
      0.4834560000D+00  0.1000000000D+01  0.1000000000D+01
 SP   1 1.00       0.000000000000
      0.1455850000D+00  0.1000000000D+01  0.1000000000D+01
 D   1 1.00       0.000000000000
      0.6260000000D+00  0.1000000000D+01
 ****
      3 0
 S   3 1.00       0.000000000000
      0.3386500000D+02  0.2549381454D-01
      0.5094790000D+01  0.1903731086D+00
      0.1158790000D+01  0.8521614860D+00
 S   1 1.00       0.000000000000
      0.3258400000D+00  0.1000000000D+01
 S   1 1.00       0.000000000000
      0.1027410000D+00  0.1000000000D+01
 P   1 1.00       0.000000000000
      0.7500000000D+00  0.1000000000D+01
 ****
      4 0
 S   3 1.00       0.000000000000
      0.3386500000D+02  0.2549381454D-01
      0.5094790000D+01  0.1903731086D+00
      0.1158790000D+01  0.8521614860D+00
 S   1 1.00       0.000000000000
      0.3258400000D+00  0.1000000000D+01
 S   1 1.00       0.000000000000
      0.1027410000D+00  0.1000000000D+01
 P   1 1.00       0.000000000000
      0.7500000000D+00  0.1000000000D+01
 ****
      5 0
 S   6 1.00       0.000000000000
      0.6293480000D+04  0.1969788147D-02
      0.9490440000D+03  0.1496128592D-01
      0.2187760000D+03  0.7350053084D-01
      0.6369160000D+02  0.2489367658D+00
      0.1882820000D+02  0.6024594331D+00
      0.2720230000D+01  0.2562017589D+00
 SP   3 1.00       0.000000000000
      0.3063310000D+02  0.1119060795D+00  0.3831191864D-01
      0.7026140000D+01  0.9216666549D+00  0.2374031155D+00
      0.2112050000D+01 -0.2569191826D-02  0.8175923978D+00
 SP   1 1.00       0.000000000000
      0.6840090000D+00  0.1000000000D+01  0.1000000000D+01
 SP   1 1.00       0.000000000000
      0.2008780000D+00  0.1000000000D+01  0.1000000000D+01
 D   1 1.00       0.000000000000
      0.9130000000D+00  0.1000000000D+01
 ****
      6 0
 S   3 1.00       0.000000000000
      0.3386500000D+02  0.2549381454D-01
      0.5094790000D+01  0.1903731086D+00
      0.1158790000D+01  0.8521614860D+00
 S   1 1.00       0.000000000000
      0.3258400000D+00  0.1000000000D+01
 S   1 1.00       0.000000000000
      0.1027410000D+00  0.1000000000D+01
 P   1 1.00       0.000000000000
      0.7500000000D+00  0.1000000000D+01
 ****
      7 0
 S   3 1.00       0.000000000000
      0.3386500000D+02  0.2549381454D-01
      0.5094790000D+01  0.1903731086D+00
      0.1158790000D+01  0.8521614860D+00
 S   1 1.00       0.000000000000
      0.3258400000D+00  0.1000000000D+01
 S   1 1.00       0.000000000000
      0.1027410000D+00  0.1000000000D+01
 P   1 1.00       0.000000000000
      0.7500000000D+00  0.1000000000D+01
 ****

 There are    43 symmetry adapted basis functions of A'  symmetry.
 There are    23 symmetry adapted basis functions of A"  symmetry.
 Integral buffers will be    131072 words long.
 Raffenetti 2 integral format.
 Two-electron integral symmetry is turned on.
    66 basis functions,   104 primitive gaussians,    68 cartesian basis functions
     9 alpha electrons        9 beta electrons
       nuclear repulsion energy        42.5147152178 Hartrees.
 NAtoms=    7 NActive=    7 NUniq=    5 SFac= 1.96D+00 NAtFMM=   50 NAOKFM=F Big=F
 One-electron integrals computed using PRISM.
 NBasis=    66 RedAO= T  NBF=    43    23
 NBsUse=    66 1.00D-06 NBFU=    43    23
 Harris functional with IExCor=  402 diagonalized for initial guess.
 ExpMin= 1.03D-01 ExpMax= 6.29D+03 ExpMxC= 9.49D+02 IAcc=1 IRadAn=         1 AccDes= 0.00D+00
 HarFok:  IExCor=  402 AccDes= 0.00D+00 IRadAn=         1 IDoV= 1
 ScaDFX=  1.000000  1.000000  1.000000  1.000000
 FoFCou: FMM=F IPFlag=           0 FMFlag=      100000 FMFlg1=           0
         NFxFlg=           0 DoJE=T BraDBF=F KetDBF=T FulRan=T
         Omega=  0.000000  0.000000  1.000000  0.000000  0.000000 ICntrl=     500 IOpCl=  0
         NMat0=    1 NMatS0=    1 NMatT0=    0 NMatD0=    1 NMtDS0=    0 NMtDT0=    0
         I1Cent=           4 NGrid=           0.
 Petite list used in FoFCou.
 Initial guess orbital symmetries:
       Occupied  (A') (A') (A') (A') (A") (A') (A') (A") (A')
       Virtual   (A') (A') (A") (A') (A") (A') (A") (A') (A') (A")
                 (A') (A') (A') (A") (A') (A") (A') (A') (A') (A")
                 (A') (A") (A') (A") (A") (A') (A') (A') (A") (A")
                 (A') (A") (A') (A') (A") (A') (A') (A") (A') (A")
                 (A') (A') (A') (A") (A") (A') (A') (A') (A") (A')
                 (A') (A") (A') (A") (A') (A') (A')
 The electronic state of the initial guess is 1-A'.
 Requested convergence on RMS density matrix=1.00D-08 within 128 cycles.
 Requested convergence on MAX density matrix=1.00D-06.
 Requested convergence on             energy=1.00D-06.
 No special actions if energy rises.
 Keep R1 ints in memory in canonical form, NReq=3732686.
 Integral accuracy reduced to 1.0D-05 until final iterations.
 Initial convergence to 1.0D-05 achieved.  Increase integral accuracy.
 SCF Done:  E(RB3LYP) =  -95.8860224672     A.U. after   11 cycles
             Convg  =    0.7274D-08             -V/T =  2.0030

 **********************************************************************

            Population analysis using the SCF density.

 **********************************************************************

 Orbital symmetries:
       Occupied  (A') (A') (A') (A') (A") (A') (A') (A") (A')
       Virtual   (A') (A') (A") (A') (A") (A') (A") (A') (A') (A")
                 (A') (A') (A") (A') (A') (A") (A') (A') (A') (A")
                 (A') (A") (A') (A") (A") (A') (A') (A") (A') (A")
                 (A') (A") (A') (A') (A") (A') (A') (A") (A') (A")
                 (A') (A') (A") (A') (A") (A') (A') (A') (A") (A')
                 (A') (A") (A') (A") (A') (A') (A')
 The electronic state is 1-A'.
 Alpha  occ. eigenvalues --  -14.27521 -10.17819  -0.87815  -0.65508  -0.49610
 Alpha  occ. eigenvalues --   -0.43638  -0.40716  -0.37016  -0.22715
 Alpha virt. eigenvalues --    0.04175   0.08353   0.09661   0.11912   0.14158
 Alpha virt. eigenvalues --    0.21930   0.31583   0.32224   0.37565   0.38485
 Alpha virt. eigenvalues --    0.48879   0.54877   0.58895   0.58936   0.63250
 Alpha virt. eigenvalues --    0.71857   0.73555   0.74645   1.01722   1.05985
 Alpha virt. eigenvalues --    1.06504   1.32853   1.43090   1.45252   1.47263
 Alpha virt. eigenvalues --    1.49402   1.57289   1.61398   1.63955   1.71676
 Alpha virt. eigenvalues --    1.76440   1.87518   1.95603   2.00399   2.14011
 Alpha virt. eigenvalues --    2.15830   2.30356   2.35001   2.37897   2.43402
 Alpha virt. eigenvalues --    2.47012   2.55073   2.57174   2.61539   2.75568
 Alpha virt. eigenvalues --    2.79339   2.84859   2.99912   3.10676   3.40687
 Alpha virt. eigenvalues --    3.76431   3.82409   4.03220   4.77199   4.86295
 Alpha virt. eigenvalues --   23.90360  35.59648
     Molecular Orbital Coefficients:
                           1         2         3         4         5
                           O         O         O         O         O
     Eigenvalues --   -14.27521 -10.17819  -0.87815  -0.65508  -0.49610
   1 1   H  1S          0.00001   0.00011   0.02749   0.08677   0.06500
   2        2S         -0.00135  -0.00329   0.03540   0.10452   0.07112
   3        3S         -0.00003   0.00155   0.00037   0.01594   0.02248
   4        4PX        -0.00018  -0.00108   0.00366   0.00700   0.00477
   5        4PY         0.00014   0.00065  -0.00413  -0.00305  -0.00301
   6        4PZ         0.00032   0.00188  -0.00619  -0.01319  -0.00235
   7 2   C  1S          0.00002   0.56298  -0.05623  -0.09324   0.00000
   8        2S         -0.00002   0.46326  -0.08658  -0.14506   0.00000
   9        2PX        -0.00002  -0.00001   0.00377  -0.00622   0.00000
  10        2PY        -0.00043  -0.00060  -0.04546   0.03954   0.00000
  11        2PZ         0.00000   0.00000   0.00000   0.00000   0.10741
  12        3S          0.00012   0.01832   0.22593   0.38962   0.00000
  13        3PX         0.00005   0.00003   0.00628  -0.00938   0.00000
  14        3PY         0.00111   0.00199  -0.07700   0.04920   0.00000
  15        3PZ         0.00000   0.00000   0.00000   0.00000   0.15975
  16        4S          0.00571  -0.00371   0.07375   0.24325   0.00000
  17        4PX        -0.00005  -0.00003   0.00435   0.00660   0.00000
  18        4PY        -0.00186  -0.00046  -0.00541   0.02688   0.00000
  19        4PZ         0.00000   0.00000   0.00000   0.00000   0.11139
  20        5D 0        0.00040   0.00047  -0.00855   0.00497   0.00000
  21        5D+1        0.00000   0.00000   0.00000   0.00000  -0.00794
  22        5D-1        0.00000   0.00000   0.00000   0.00000  -0.01208
  23        5D+2        0.00073   0.00077  -0.01600   0.00640   0.00000
  24        5D-2       -0.00002  -0.00005  -0.00264   0.00148   0.00000
  25 3   H  1S          0.00001   0.00011   0.02749   0.08677  -0.06500
  26        2S         -0.00135  -0.00329   0.03540   0.10452  -0.07112
  27        3S         -0.00003   0.00155   0.00037   0.01594  -0.02248
  28        4PX        -0.00018  -0.00108   0.00366   0.00700  -0.00477
  29        4PY         0.00014   0.00065  -0.00413  -0.00305   0.00301
  30        4PZ        -0.00032  -0.00188   0.00619   0.01319  -0.00235
  31 4   H  1S          0.00000   0.00010   0.02994   0.08154   0.00000
  32        2S         -0.00136  -0.00323   0.03547   0.09314   0.00000
  33        3S         -0.00016   0.00161  -0.00076   0.00996   0.00000
  34        4PX         0.00040   0.00214  -0.00762  -0.01411   0.00000
  35        4PY         0.00020   0.00064  -0.00398  -0.00268   0.00000
  36        4PZ         0.00000   0.00000   0.00000   0.00000   0.00499
  37 5   N  1S          0.55736  -0.00003  -0.10189   0.04494   0.00000
  38        2S          0.46577  -0.00005  -0.15997   0.07111   0.00000
  39        2PX         0.00120   0.00001   0.03419  -0.03877   0.00000
  40        2PY         0.00053   0.00031   0.02556   0.07235   0.00000
  41        2PZ         0.00000   0.00000   0.00000   0.00000   0.18899
  42        3S          0.01534   0.00054   0.43762  -0.19922   0.00000
  43        3PX         0.00099  -0.00005   0.05156  -0.05795   0.00000
  44        3PY        -0.00030  -0.00040   0.04287   0.10780   0.00000
  45        3PZ         0.00000   0.00000   0.00000   0.00000   0.27484
  46        4S         -0.00658  -0.00156   0.29257  -0.16024   0.00000
  47        4PX         0.00035  -0.00023   0.02138  -0.02886   0.00000
  48        4PY        -0.00234  -0.00073   0.02449   0.05229   0.00000
  49        4PZ         0.00000   0.00000   0.00000   0.00000   0.15964
  50        5D 0        0.00064   0.00020   0.00168  -0.00880   0.00000
  51        5D+1        0.00000   0.00000   0.00000   0.00000   0.02118
  52        5D-1        0.00000   0.00000   0.00000   0.00000   0.00238
  53        5D+2       -0.00007   0.00043  -0.00634  -0.00928   0.00000
  54        5D-2       -0.00048  -0.00002  -0.00214   0.00607   0.00000
  55 6   H  1S         -0.00010  -0.00011   0.08025  -0.06979  -0.12511
  56        2S         -0.00178   0.00045   0.07361  -0.07562  -0.16410
  57        3S          0.00056  -0.00010   0.00487  -0.01750  -0.06290
  58        4PX         0.00085   0.00002  -0.00653   0.00337   0.01031
  59        4PY        -0.00048   0.00019   0.00815   0.00042  -0.01128
  60        4PZ        -0.00152   0.00002   0.01494  -0.01132  -0.00679
  61 7   H  1S         -0.00010  -0.00011   0.08025  -0.06979   0.12511
  62        2S         -0.00178   0.00045   0.07361  -0.07562   0.16410
  63        3S          0.00056  -0.00010   0.00487  -0.01750   0.06290
  64        4PX         0.00085   0.00002  -0.00653   0.00337  -0.01031
  65        4PY        -0.00048   0.00019   0.00815   0.00042   0.01128
  66        4PZ         0.00152  -0.00002  -0.01494   0.01132  -0.00679
                           6         7         8         9        10
                           O         O         O         O         V
     Eigenvalues --    -0.43638  -0.40716  -0.37016  -0.22715   0.04175
   1 1   H  1S         -0.01380  -0.09491   0.13574   0.03570  -0.00212
   2        2S         -0.01885  -0.12946   0.19181   0.08194  -0.06242
   3        3S         -0.01463  -0.06170   0.11023   0.03501  -0.42819
   4        4PX         0.00716   0.00129   0.00978  -0.00287   0.00115
   5        4PY         0.00736  -0.00211  -0.00553  -0.00270   0.00793
   6        4PZ         0.00295   0.01080  -0.00418  -0.00470  -0.00373
   7 2   C  1S         -0.00346  -0.00178   0.00000  -0.00582  -0.03064
   8        2S         -0.00523  -0.00293   0.00000  -0.00917  -0.04755
   9        2PX         0.13777   0.14106   0.00000  -0.06593   0.01725
  10        2PY         0.12019  -0.13259   0.00000  -0.03582   0.07028
  11        2PZ         0.00000   0.00000   0.17975   0.00000   0.00000
  12        3S          0.00745   0.01204   0.00000   0.02901   0.07539
  13        3PX         0.20005   0.20392   0.00000  -0.08936   0.01771
  14        3PY         0.18101  -0.19335   0.00000  -0.04666   0.08817
  15        3PZ         0.00000   0.00000   0.25566   0.00000   0.00000
  16        4S          0.01372   0.00511   0.00000  -0.05160   1.30077
  17        4PX         0.11212   0.14241   0.00000  -0.05584   0.07264
  18        4PY         0.09941  -0.12082   0.00000  -0.00657   0.25370
  19        4PZ         0.00000   0.00000   0.17822   0.00000   0.00000
  20        5D 0       -0.00121  -0.02288   0.00000   0.00693  -0.00368
  21        5D+1        0.00000   0.00000  -0.01975   0.00000   0.00000
  22        5D-1        0.00000   0.00000   0.02150   0.00000   0.00000
  23        5D+2        0.02533  -0.01001   0.00000  -0.00588  -0.00884
  24        5D-2       -0.00068   0.00562   0.00000  -0.03124  -0.00756
  25 3   H  1S         -0.01380  -0.09491  -0.13574   0.03570  -0.00212
  26        2S         -0.01885  -0.12946  -0.19181   0.08194  -0.06242
  27        3S         -0.01463  -0.06170  -0.11023   0.03501  -0.42819
  28        4PX         0.00716   0.00129  -0.00978  -0.00287   0.00115
  29        4PY         0.00736  -0.00211   0.00553  -0.00270   0.00793
  30        4PZ        -0.00295  -0.01080  -0.00418   0.00470   0.00373
  31 4   H  1S          0.14363   0.07593   0.00000  -0.08863  -0.00769
  32        2S          0.19086   0.09486   0.00000  -0.16375  -0.04421
  33        3S          0.09966   0.05759   0.00000  -0.11023  -0.65466
  34        4PX        -0.01155  -0.00191   0.00000   0.00609  -0.00982
  35        4PY        -0.00150  -0.00999   0.00000  -0.00209   0.00463
  36        4PZ         0.00000   0.00000   0.01111   0.00000   0.00000
  37 5   N  1S          0.01742   0.00261   0.00000   0.03224  -0.03781
  38        2S          0.02809   0.00410   0.00000   0.05214  -0.06020
  39        2PX         0.10077   0.01004   0.00000   0.24180   0.05487
  40        2PY        -0.11520   0.15327   0.00000   0.08410  -0.04438
  41        2PZ         0.00000   0.00000  -0.11425   0.00000   0.00000
  42        3S         -0.08759  -0.00933   0.00000  -0.15656   0.15426
  43        3PX         0.14691   0.01830   0.00000   0.33477   0.08202
  44        3PY        -0.17052   0.22306   0.00000   0.11185  -0.04259
  45        3PZ         0.00000   0.00000  -0.16225   0.00000   0.00000
  46        4S         -0.06913  -0.01160   0.00000  -0.19391   0.76897
  47        4PX         0.11870   0.02033   0.00000   0.42858   0.17431
  48        4PY        -0.10185   0.15642   0.00000   0.17749  -0.25501
  49        4PZ         0.00000   0.00000  -0.11181   0.00000   0.00000
  50        5D 0        0.00442  -0.01010   0.00000  -0.00713  -0.00202
  51        5D+1        0.00000   0.00000  -0.01594   0.00000   0.00000
  52        5D-1        0.00000   0.00000   0.01485   0.00000   0.00000
  53        5D+2        0.01431  -0.00875   0.00000   0.01072   0.00135
  54        5D-2        0.00239   0.01876   0.00000   0.00552  -0.00112
  55 6   H  1S          0.05502  -0.04834   0.09042   0.04089  -0.02267
  56        2S          0.06360  -0.07251   0.13309   0.04349  -0.02471
  57        3S          0.03725  -0.04291   0.08352   0.03657  -0.65850
  58        4PX         0.00469   0.00466  -0.00611   0.01915  -0.00409
  59        4PY        -0.00446   0.00997   0.00403   0.00905   0.00397
  60        4PZ         0.00782  -0.00684   0.00444   0.00676   0.01148
  61 7   H  1S          0.05502  -0.04834  -0.09042   0.04089  -0.02267
  62        2S          0.06360  -0.07251  -0.13309   0.04349  -0.02471
  63        3S          0.03725  -0.04291  -0.08352   0.03657  -0.65850
  64        4PX         0.00469   0.00466   0.00611   0.01915  -0.00409
  65        4PY        -0.00446   0.00997  -0.00403   0.00905   0.00397
  66        4PZ        -0.00782   0.00684   0.00444  -0.00676  -0.01148
                          11        12        13        14        15
                           V         V         V         V         V
     Eigenvalues --     0.08353   0.09661   0.11912   0.14158   0.21930
   1 1   H  1S         -0.01539  -0.01687  -0.01075   0.01913  -0.02978
   2        2S          0.01320   0.01172   0.01075   0.06431  -0.16961
   3        3S         -0.94525  -1.05265  -0.93163   1.42825  -0.10060
   4        4PX         0.00716   0.01013   0.00326  -0.01528   0.00707
   5        4PY        -0.00970  -0.00936  -0.00449   0.00474   0.01132
   6        4PZ        -0.00928  -0.01879  -0.02000   0.01533  -0.00719
   7 2   C  1S         -0.04999   0.00000   0.00446   0.00000   0.01504
   8        2S         -0.07856   0.00000   0.00690   0.00000   0.02319
   9        2PX        -0.02527   0.00000  -0.17259   0.00000   0.01042
  10        2PY         0.02053   0.00000   0.00561   0.00000   0.12407
  11        2PZ         0.00000   0.11775   0.00000  -0.12771   0.00000
  12        3S          0.16984   0.00000  -0.00331   0.00000  -0.01153
  13        3PX        -0.02319   0.00000  -0.16582   0.00000   0.01021
  14        3PY        -0.00405   0.00000   0.01490   0.00000   0.13655
  15        3PZ         0.00000   0.11135   0.00000  -0.12969   0.00000
  16        4S          1.54620   0.00000  -0.26023   0.00000  -1.05316
  17        4PX        -0.19073   0.00000  -1.12911   0.00000   0.12252
  18        4PY         0.13017   0.00000   0.11812   0.00000   1.93330
  19        4PZ         0.00000   0.68074   0.00000  -1.02334   0.00000
  20        5D 0        0.00231   0.00000  -0.02377   0.00000  -0.02082
  21        5D+1        0.00000   0.01376   0.00000  -0.02388   0.00000
  22        5D-1        0.00000  -0.02335   0.00000   0.00727   0.00000
  23        5D+2        0.00222   0.00000   0.01023   0.00000  -0.03948
  24        5D-2        0.00543   0.00000   0.01958   0.00000   0.00632
  25 3   H  1S         -0.01539   0.01687  -0.01075  -0.01913  -0.02978
  26        2S          0.01320  -0.01172   0.01075  -0.06431  -0.16961
  27        3S         -0.94525   1.05265  -0.93163  -1.42825  -0.10060
  28        4PX         0.00716  -0.01013   0.00326   0.01528   0.00707
  29        4PY        -0.00970   0.00936  -0.00449  -0.00474   0.01132
  30        4PZ         0.00928  -0.01879   0.02000   0.01533   0.00719
  31 4   H  1S         -0.00841   0.00000   0.02162   0.00000  -0.03236
  32        2S          0.04586   0.00000  -0.03030   0.00000  -0.22377
  33        3S         -0.55635   0.00000   2.09183   0.00000  -0.32854
  34        4PX        -0.00668   0.00000   0.03594   0.00000  -0.00945
  35        4PY        -0.00800   0.00000   0.01238   0.00000   0.01207
  36        4PZ         0.00000  -0.00087   0.00000  -0.01172   0.00000
  37 5   N  1S          0.03363   0.00000  -0.00992   0.00000  -0.02533
  38        2S          0.05337   0.00000  -0.01566   0.00000  -0.04019
  39        2PX        -0.04399   0.00000   0.02246   0.00000  -0.04102
  40        2PY        -0.00180   0.00000   0.00784   0.00000   0.17426
  41        2PZ         0.00000   0.11452   0.00000   0.12107   0.00000
  42        3S         -0.12311   0.00000   0.02665   0.00000   0.07491
  43        3PX        -0.06812   0.00000   0.01582   0.00000  -0.04299
  44        3PY        -0.02018   0.00000   0.00789   0.00000   0.21448
  45        3PZ         0.00000   0.13273   0.00000   0.13063   0.00000
  46        4S         -0.82958   0.00000   0.38106   0.00000   1.23427
  47        4PX        -0.13199   0.00000   0.22169   0.00000  -0.15004
  48        4PY        -0.00658   0.00000   0.04928   0.00000   1.14026
  49        4PZ         0.00000   0.44829   0.00000   0.66630   0.00000
  50        5D 0       -0.00152   0.00000  -0.00198   0.00000   0.01434
  51        5D+1        0.00000   0.00123   0.00000   0.00052   0.00000
  52        5D-1        0.00000   0.01838   0.00000  -0.00402   0.00000
  53        5D+2       -0.00537   0.00000   0.00402   0.00000   0.00197
  54        5D-2       -0.00323   0.00000  -0.01322   0.00000   0.00480
  55 6   H  1S          0.02315   0.02814   0.00084   0.00706   0.00853
  56        2S          0.00741   0.02239  -0.05198   0.04751  -0.01281
  57        3S          0.66813   1.05743  -0.15601   1.05682   0.55103
  58        4PX         0.00165   0.00766   0.00835   0.01047   0.00526
  59        4PY        -0.01033  -0.00915  -0.00277   0.00017  -0.00199
  60        4PZ        -0.00430  -0.01336   0.00023  -0.00951  -0.01831
  61 7   H  1S          0.02315  -0.02814   0.00084  -0.00706   0.00853
  62        2S          0.00741  -0.02239  -0.05198  -0.04751  -0.01281
  63        3S          0.66813  -1.05743  -0.15601  -1.05682   0.55103
  64        4PX         0.00165  -0.00766   0.00835  -0.01047   0.00526
  65        4PY        -0.01033   0.00915  -0.00277  -0.00017  -0.00199
  66        4PZ         0.00430  -0.01336  -0.00023  -0.00951   0.01831
                          16        17        18        19        20
                           V         V         V         V         V
     Eigenvalues --     0.31583   0.32224   0.37565   0.38485   0.48879
   1 1   H  1S         -0.07920   0.04165   0.01846  -0.03620  -0.04192
   2        2S         -1.20216   0.65885   0.21616   0.28331  -0.54671
   3        3S          0.34714  -0.10582  -0.13074   0.20589   0.18987
   4        4PX        -0.01643   0.03847   0.02030   0.00695   0.00042
   5        4PY         0.02679  -0.01225  -0.01171  -0.06421  -0.02772
   6        4PZ         0.05512  -0.00803  -0.00299  -0.01757   0.00289
   7 2   C  1S          0.00000   0.00708  -0.02366   0.00000  -0.05379
   8        2S          0.00000   0.01396  -0.04571   0.00000  -0.09739
   9        2PX         0.00000   0.00949   0.04210   0.00000  -0.04026
  10        2PY         0.00000   0.03375  -0.13833   0.00000  -0.21344
  11        2PZ         0.00148   0.00000   0.00000   0.04749   0.00000
  12        3S          0.00000  -0.13027   0.35553   0.00000   0.39222
  13        3PX         0.00000   0.08778   0.11545   0.00000  -0.13210
  14        3PY         0.00000   0.09419  -0.42664   0.00000  -0.59677
  15        3PZ         0.09893   0.00000   0.00000   0.09941   0.00000
  16        4S          0.00000   0.45258  -0.71530   0.00000   1.27803
  17        4PX         0.00000   1.75116  -0.04014   0.00000   0.48263
  18        4PY         0.00000  -0.36102   0.82427   0.00000   0.57152
  19        4PZ         1.55690   0.00000   0.00000  -1.23028   0.00000
  20        5D 0        0.00000  -0.00779   0.00660   0.00000   0.02931
  21        5D+1       -0.01204   0.00000   0.00000   0.00324   0.00000
  22        5D-1        0.00909   0.00000   0.00000  -0.04992   0.00000
  23        5D+2        0.00000   0.00477   0.00423   0.00000   0.04253
  24        5D-2        0.00000   0.03630  -0.00954   0.00000   0.03307
  25 3   H  1S          0.07920   0.04165   0.01846   0.03620  -0.04192
  26        2S          1.20216   0.65885   0.21616  -0.28331  -0.54671
  27        3S         -0.34714  -0.10582  -0.13074  -0.20589   0.18987
  28        4PX         0.01643   0.03847   0.02030  -0.00695   0.00042
  29        4PY        -0.02679  -0.01225  -0.01171   0.06421  -0.02772
  30        4PZ         0.05512   0.00803   0.00299  -0.01757  -0.00289
  31 4   H  1S          0.00000  -0.06798  -0.06214   0.00000  -0.00272
  32        2S          0.00000  -1.38803  -0.30544   0.00000  -0.55225
  33        3S          0.00000   0.19437   0.24881   0.00000  -0.20203
  34        4PX         0.00000   0.06748  -0.00145   0.00000   0.01235
  35        4PY         0.00000   0.04984  -0.04860   0.00000   0.01774
  36        4PZ         0.02744   0.00000   0.00000  -0.00592   0.00000
  37 5   N  1S          0.00000  -0.00418  -0.01420   0.00000   0.05548
  38        2S          0.00000  -0.00742  -0.02402   0.00000   0.09434
  39        2PX         0.00000  -0.05703   0.02189   0.00000  -0.03786
  40        2PY         0.00000  -0.01513  -0.07167   0.00000  -0.09530
  41        2PZ         0.02451   0.00000   0.00000   0.07716   0.00000
  42        3S          0.00000   0.08567   0.00964   0.00000  -0.31118
  43        3PX         0.00000  -0.08681   0.06579   0.00000  -0.09656
  44        3PY         0.00000  -0.03228  -0.07214   0.00000  -0.05862
  45        3PZ         0.06246   0.00000   0.00000   0.14840   0.00000
  46        4S          0.00000  -0.70347   1.50234   0.00000  -0.77203
  47        4PX         0.00000  -0.70690   0.60768   0.00000  -0.41613
  48        4PY         0.00000   0.06693  -0.45612   0.00000  -0.33104
  49        4PZ        -0.34595   0.00000   0.00000   1.50654   0.00000
  50        5D 0        0.00000   0.00447  -0.02126   0.00000  -0.00977
  51        5D+1       -0.01446   0.00000   0.00000  -0.00164   0.00000
  52        5D-1        0.02821   0.00000   0.00000   0.00546   0.00000
  53        5D+2        0.00000  -0.00638  -0.02762   0.00000  -0.05688
  54        5D-2        0.00000   0.01767  -0.00440   0.00000  -0.01933
  55 6   H  1S          0.05449  -0.00749  -0.07322   0.08301   0.05435
  56        2S          0.04987   0.46181  -1.17680   1.42523   0.91337
  57        3S          0.22808  -0.22144   0.42866  -0.86766  -0.45342
  58        4PX         0.01443  -0.01763   0.02396  -0.00239  -0.02247
  59        4PY        -0.04551   0.03616  -0.05368   0.03241  -0.02506
  60        4PZ        -0.00533   0.02732  -0.01875   0.04334  -0.00434
  61 7   H  1S         -0.05449  -0.00749  -0.07322  -0.08301   0.05435
  62        2S         -0.04987   0.46181  -1.17680  -1.42523   0.91337
  63        3S         -0.22808  -0.22144   0.42866   0.86766  -0.45342
  64        4PX        -0.01443  -0.01763   0.02396   0.00239  -0.02247
  65        4PY         0.04551   0.03616  -0.05368  -0.03241  -0.02506
  66        4PZ        -0.00533  -0.02732   0.01875   0.04334   0.00434
                          21        22        23        24        25
                           V         V         V         V         V
     Eigenvalues --     0.54877   0.58895   0.58936   0.63250   0.71857
   1 1   H  1S         -0.07378   0.06919  -0.04170   0.03011  -0.01937
   2        2S         -0.99447   0.38104  -0.19058   0.11039   0.03418
   3        3S          0.31131  -1.58318   0.88459  -0.48975  -0.15128
   4        4PX         0.01474  -0.03660   0.00015   0.00607  -0.01643
   5        4PY         0.00808   0.02688  -0.02311  -0.01294  -0.09642
   6        4PZ        -0.02649   0.03080  -0.03592   0.03704   0.00302
   7 2   C  1S         -0.06302   0.00000  -0.00133   0.02952   0.00000
   8        2S         -0.11282   0.00000  -0.00279   0.05335   0.00000
   9        2PX         0.02730   0.00000  -0.27489   0.02661   0.00000
  10        2PY         0.12495   0.00000   0.02321  -0.01953   0.00000
  11        2PZ         0.00000  -0.28059   0.00000   0.00000  -0.02642
  12        3S          0.41654   0.00000   0.01970  -0.38119   0.00000
  13        3PX         0.13720   0.00000  -0.90356   0.24806   0.00000
  14        3PY         0.47169   0.00000   0.03079  -0.24538   0.00000
  15        3PZ         0.00000  -0.93630   0.00000   0.00000  -0.27987
  16        4S          1.48846   0.00000   0.07171   1.76282   0.00000
  17        4PX        -0.19977   0.00000   1.97449   0.08926   0.00000
  18        4PY        -0.84969   0.00000  -0.08089  -0.14165   0.00000
  19        4PZ         0.00000   1.81620   0.00000   0.00000   0.13653
  20        5D 0       -0.00410   0.00000  -0.05174  -0.00272   0.00000
  21        5D+1        0.00000  -0.05905   0.00000   0.00000  -0.00946
  22        5D-1        0.00000   0.03206   0.00000   0.00000   0.00978
  23        5D+2       -0.00580   0.00000   0.00874  -0.04157   0.00000
  24        5D-2       -0.03253   0.00000   0.04307  -0.03100   0.00000
  25 3   H  1S         -0.07378  -0.06919  -0.04170   0.03011   0.01937
  26        2S         -0.99447  -0.38104  -0.19058   0.11039  -0.03418
  27        3S          0.31131   1.58318   0.88459  -0.48975   0.15128
  28        4PX         0.01474   0.03660   0.00015   0.00607   0.01643
  29        4PY         0.00808  -0.02688  -0.02311  -0.01294   0.09642
  30        4PZ         0.02649   0.03080   0.03592  -0.03704   0.00302
  31 4   H  1S         -0.09905   0.00000   0.07183   0.01415   0.00000
  32        2S         -1.13197   0.00000   0.29918  -0.25525   0.00000
  33        3S          0.75149   0.00000  -1.75563   0.14434   0.00000
  34        4PX        -0.03418   0.00000   0.04690   0.02222   0.00000
  35        4PY         0.01042   0.00000   0.05132   0.10892   0.00000
  36        4PZ         0.00000  -0.03456   0.00000   0.00000  -0.02643
  37 5   N  1S          0.00743   0.00000  -0.01512   0.01508   0.00000
  38        2S          0.01201   0.00000  -0.02733   0.02434   0.00000
  39        2PX         0.07207   0.00000   0.08157   0.21514   0.00000
  40        2PY        -0.05245   0.00000  -0.00667   0.09327   0.00000
  41        2PZ         0.00000   0.07179   0.00000   0.00000  -0.26619
  42        3S         -0.02432   0.00000   0.15797   0.02248   0.00000
  43        3PX         0.19789   0.00000   0.20624   0.68919   0.00000
  44        3PY        -0.07791   0.00000  -0.00124   0.34537   0.00000
  45        3PZ         0.00000   0.15842   0.00000   0.00000  -0.75596
  46        4S         -0.73892   0.00000  -0.16686  -1.24044   0.00000
  47        4PX        -0.10153   0.00000  -0.40651  -1.35278   0.00000
  48        4PY        -0.55158   0.00000  -0.11028  -0.80492   0.00000
  49        4PZ         0.00000  -0.12999   0.00000   0.00000   1.86770
  50        5D 0       -0.01649   0.00000  -0.01696  -0.00567   0.00000
  51        5D+1        0.00000  -0.01691   0.00000   0.00000   0.03466
  52        5D-1        0.00000  -0.01010   0.00000   0.00000  -0.04666
  53        5D+2        0.01039   0.00000   0.00184   0.00449   0.00000
  54        5D-2        0.01717   0.00000  -0.01275   0.03250   0.00000
  55 6   H  1S         -0.02882   0.02924  -0.03247  -0.00284  -0.03800
  56        2S         -0.21071   0.30650  -0.23393   0.44779   0.17433
  57        3S         -0.11717  -0.23566   0.17823  -0.02578   1.06741
  58        4PX         0.00919   0.02047   0.00351  -0.02910  -0.06662
  59        4PY         0.03356  -0.02701   0.01911   0.05561   0.06185
  60        4PZ         0.01700   0.00235   0.04212   0.04083   0.10721
  61 7   H  1S         -0.02882  -0.02924  -0.03247  -0.00284   0.03800
  62        2S         -0.21071  -0.30650  -0.23393   0.44779  -0.17433
  63        3S         -0.11717   0.23566   0.17823  -0.02578  -1.06741
  64        4PX         0.00919  -0.02047   0.00351  -0.02910   0.06662
  65        4PY         0.03356   0.02701   0.01911   0.05561  -0.06185
  66        4PZ        -0.01700   0.00235  -0.04212  -0.04083   0.10721
                          26        27        28        29        30
                           V         V         V         V         V
     Eigenvalues --     0.73555   0.74645   1.01722   1.05985   1.06504
   1 1   H  1S          0.00300   0.00383   0.02970  -0.00162   0.00459
   2        2S         -0.49354  -0.82834   0.45045   0.03434   0.35062
   3        3S         -0.74832  -0.37690   0.20018  -0.00670   0.11164
   4        4PX        -0.05849  -0.06461  -0.10543   0.15966   0.11115
   5        4PY        -0.01009   0.08304   0.08019   0.19625  -0.13627
   6        4PZ         0.08474   0.06771  -0.11947  -0.00154   0.10860
   7 2   C  1S          0.05566   0.07087  -0.01669   0.00000  -0.00355
   8        2S          0.11758   0.14095  -0.03244   0.00000  -0.00508
   9        2PX         0.00807  -0.02514  -0.03058   0.00000   0.00507
  10        2PY        -0.13478   0.03468  -0.04561   0.00000  -0.01962
  11        2PZ         0.00000   0.00000   0.00000   0.01100   0.00000
  12        3S         -1.21172  -1.36987   0.46648   0.00000   0.22818
  13        3PX         0.06909  -0.13658  -0.06481   0.00000  -0.02495
  14        3PY        -0.09689   0.07032   0.17150   0.00000   0.31341
  15        3PZ         0.00000   0.00000   0.00000  -0.08258   0.00000
  16        4S          2.71471   5.73445  -3.57649   0.00000  -3.27178
  17        4PX        -0.15436   0.06149   0.34120   0.00000  -0.08897
  18        4PY         1.22208  -0.88976   1.17112   0.00000   1.17762
  19        4PZ         0.00000   0.00000   0.00000  -0.20955   0.00000
  20        5D 0        0.06953  -0.00984  -0.07348   0.00000   0.16558
  21        5D+1        0.00000   0.00000   0.00000   0.18792   0.00000
  22        5D-1        0.00000   0.00000   0.00000   0.45567   0.00000
  23        5D+2        0.13945   0.01397   0.20305   0.00000   0.08735
  24        5D-2       -0.01821  -0.03513  -0.34348   0.00000   0.29420
  25 3   H  1S          0.00300   0.00383   0.02970   0.00162   0.00459
  26        2S         -0.49354  -0.82834   0.45045  -0.03434   0.35062
  27        3S         -0.74832  -0.37690   0.20018   0.00670   0.11164
  28        4PX        -0.05849  -0.06461  -0.10543  -0.15966   0.11115
  29        4PY        -0.01009   0.08304   0.08019  -0.19625  -0.13627
  30        4PZ        -0.08474  -0.06771   0.11947  -0.00154  -0.10860
  31 4   H  1S          0.01168  -0.01598  -0.01334   0.00000   0.00847
  32        2S         -0.43899  -0.74345   0.39932   0.00000   0.34600
  33        3S         -0.67512  -0.54693  -0.01609   0.00000   0.07262
  34        4PX         0.10070   0.10454   0.07753   0.00000  -0.05545
  35        4PY         0.00182  -0.00746  -0.27139   0.00000   0.12564
  36        4PZ         0.00000   0.00000   0.00000   0.26976   0.00000
  37 5   N  1S         -0.00868   0.03357   0.06138   0.00000   0.06728
  38        2S         -0.01369   0.06098   0.12468   0.00000   0.13904
  39        2PX         0.05117  -0.08785  -0.00383   0.00000  -0.00733
  40        2PY        -0.19169   0.12957  -0.03100   0.00000  -0.00056
  41        2PZ         0.00000   0.00000   0.00000   0.00457   0.00000
  42        3S          0.05618  -0.35249  -1.16882   0.00000  -1.34973
  43        3PX         0.11623  -0.25097   0.24628   0.00000   0.11787
  44        3PY        -0.61539   0.40732  -0.19117   0.00000  -0.14964
  45        3PZ         0.00000   0.00000   0.00000  -0.07563   0.00000
  46        4S         -0.15480  -0.54536   3.91393   0.00000   4.41920
  47        4PX        -0.27593   0.77289  -0.09257   0.00000   0.33159
  48        4PY         1.24520  -2.13476   1.23513   0.00000   1.31626
  49        4PZ         0.00000   0.00000   0.00000   0.76841   0.00000
  50        5D 0       -0.02062   0.02232   0.05521   0.00000  -0.01410
  51        5D+1        0.00000   0.00000   0.00000  -0.06326   0.00000
  52        5D-1        0.00000   0.00000   0.00000  -0.17754   0.00000
  53        5D+2        0.01367   0.04629   0.03219   0.00000   0.08849
  54        5D-2        0.01598  -0.00207   0.09529   0.00000  -0.11904
  55 6   H  1S         -0.03796  -0.01002   0.03846  -0.02402   0.02156
  56        2S         -0.07291  -0.31344  -0.55096   0.37248  -0.74528
  57        3S          0.55152  -0.67916   0.03417   0.10256  -0.01270
  58        4PX        -0.01873   0.06978   0.03284   0.19686   0.31885
  59        4PY         0.04607   0.04284   0.03108   0.24221  -0.11158
  60        4PZ         0.05919  -0.08705  -0.22879   0.03369  -0.01217
  61 7   H  1S         -0.03796  -0.01002   0.03846   0.02402   0.02156
  62        2S         -0.07291  -0.31344  -0.55096  -0.37248  -0.74528
  63        3S          0.55152  -0.67916   0.03417  -0.10256  -0.01270
  64        4PX        -0.01873   0.06978   0.03284  -0.19686   0.31885
  65        4PY         0.04607   0.04284   0.03108  -0.24221  -0.11158
  66        4PZ        -0.05919   0.08705   0.22879   0.03369   0.01217
                          31        32        33        34        35
                           V         V         V         V         V
     Eigenvalues --     1.32853   1.43090   1.45252   1.47263   1.49402
   1 1   H  1S         -0.01468   0.08522  -0.00773  -0.24890   0.10429
   2        2S         -0.23548  -0.44600   0.04939   1.30912  -0.53869
   3        3S         -0.18053   0.02746  -0.00373  -0.13686   0.02810
   4        4PX        -0.04377   0.04585  -0.51382   0.09708   0.31675
   5        4PY        -0.38494  -0.17373  -0.00377  -0.04689   0.16016
   6        4PZ         0.13116   0.08102  -0.29239   0.16944   0.04947
   7 2   C  1S          0.00000  -0.00322   0.00000   0.00000   0.00717
   8        2S          0.00000  -0.00665   0.00000   0.00000   0.01513
   9        2PX         0.00000  -0.04781   0.00000   0.00000  -0.03489
  10        2PY         0.00000   0.02207   0.00000   0.00000   0.01189
  11        2PZ         0.01377   0.00000  -0.00359  -0.06119   0.00000
  12        3S          0.00000   0.13107   0.00000   0.00000  -0.13883
  13        3PX         0.00000  -0.09424   0.00000   0.00000  -0.07781
  14        3PY         0.00000   0.04620   0.00000   0.00000   0.06321
  15        3PZ        -0.09786   0.00000  -0.00965  -0.11689   0.00000
  16        4S          0.00000  -0.89728   0.00000   0.00000  -0.04164
  17        4PX         0.00000  -1.19309   0.00000   0.00000  -0.83017
  18        4PY         0.00000   0.35529   0.00000   0.00000   0.10487
  19        4PZ         0.70943   0.00000  -0.06002  -1.28599   0.00000
  20        5D 0        0.00000   0.54817   0.00000   0.00000   0.42388
  21        5D+1       -0.20564   0.00000   0.02903   0.75007   0.00000
  22        5D-1       -0.08935   0.00000  -0.00572  -0.43720   0.00000
  23        5D+2        0.00000  -0.22399   0.00000   0.00000  -0.26401
  24        5D-2        0.00000  -0.17010   0.00000   0.00000  -0.31765
  25 3   H  1S          0.01468   0.08522   0.00773   0.24890   0.10429
  26        2S          0.23548  -0.44600  -0.04939  -1.30912  -0.53869
  27        3S          0.18053   0.02746   0.00373   0.13686   0.02810
  28        4PX         0.04377   0.04585   0.51382  -0.09708   0.31675
  29        4PY         0.38494  -0.17373   0.00377   0.04689   0.16016
  30        4PZ         0.13116  -0.08102  -0.29239   0.16944  -0.04947
  31 4   H  1S          0.00000  -0.14779   0.00000   0.00000  -0.23503
  32        2S          0.00000   1.12906   0.00000   0.00000   1.07264
  33        3S          0.00000   0.06208   0.00000   0.00000  -0.16063
  34        4PX         0.00000  -0.08820   0.00000   0.00000   0.24450
  35        4PY         0.00000   0.26672   0.00000   0.00000  -0.39518
  36        4PZ         0.03922   0.00000   0.61580   0.25634   0.00000
  37 5   N  1S          0.00000   0.01989   0.00000   0.00000  -0.00616
  38        2S          0.00000   0.04482   0.00000   0.00000  -0.01271
  39        2PX         0.00000  -0.02960   0.00000   0.00000  -0.00200
  40        2PY         0.00000  -0.02369   0.00000   0.00000   0.01915
  41        2PZ         0.03970   0.00000   0.00058  -0.00839   0.00000
  42        3S          0.00000  -0.50834   0.00000   0.00000   0.11408
  43        3PX         0.00000  -0.11397   0.00000   0.00000   0.02767
  44        3PY         0.00000  -0.01437   0.00000   0.00000  -0.02001
  45        3PZ         0.16881   0.00000  -0.00354  -0.05982   0.00000
  46        4S          0.00000   1.86973   0.00000   0.00000  -0.33085
  47        4PX         0.00000   1.18170   0.00000   0.00000  -0.15462
  48        4PY         0.00000  -0.07392   0.00000   0.00000   0.47312
  49        4PZ        -0.60468   0.00000   0.06993   0.41619   0.00000
  50        5D 0        0.00000   0.19618   0.00000   0.00000  -0.04553
  51        5D+1       -0.04864   0.00000   0.00299   0.04050   0.00000
  52        5D-1       -0.15624   0.00000  -0.00201   0.10648   0.00000
  53        5D+2        0.00000  -0.09126   0.00000   0.00000   0.02596
  54        5D-2        0.00000   0.15721   0.00000   0.00000  -0.06994
  55 6   H  1S         -0.07666  -0.00980  -0.00188   0.06306  -0.00038
  56        2S         -0.09260  -0.75875   0.03561   0.04008   0.25451
  57        3S         -0.05283   0.05007  -0.00598  -0.13370   0.08038
  58        4PX         0.11962  -0.28028  -0.02779  -0.10735   0.06550
  59        4PY         0.45800   0.20180   0.01213   0.05595  -0.24014
  60        4PZ        -0.11776  -0.23391  -0.02354  -0.11315   0.12020
  61 7   H  1S          0.07666  -0.00980   0.00188  -0.06306  -0.00038
  62        2S          0.09260  -0.75875  -0.03561  -0.04008   0.25451
  63        3S          0.05283   0.05007   0.00598   0.13370   0.08038
  64        4PX        -0.11962  -0.28028   0.02779   0.10735   0.06550
  65        4PY        -0.45800   0.20180  -0.01213  -0.05595  -0.24014
  66        4PZ        -0.11776   0.23391  -0.02354  -0.11315  -0.12020
                          36        37        38        39        40
                           V         V         V         V         V
     Eigenvalues --     1.57289   1.61398   1.63955   1.71676   1.76440
   1 1   H  1S          0.04616   0.07926  -0.21706  -0.14988   0.01779
   2        2S         -0.17864  -0.10186   0.63892   0.11475  -0.19334
   3        3S         -0.08213   0.17490  -0.13752  -0.37194  -0.16425
   4        4PX         0.04676   0.08833   0.13702   0.01199   0.28665
   5        4PY        -0.25398  -0.08694   0.25577   0.38749   0.36187
   6        4PZ         0.04941   0.01100   0.04562  -0.33644  -0.03878
   7 2   C  1S          0.01621   0.00000  -0.00025   0.00000  -0.01684
   8        2S          0.03092   0.00000   0.00654   0.00000  -0.03833
   9        2PX        -0.00955   0.00000  -0.03805   0.00000  -0.07148
  10        2PY         0.21638   0.00000  -0.07469   0.00000  -0.14048
  11        2PZ         0.00000  -0.03473   0.00000   0.05606   0.00000
  12        3S         -0.13427   0.00000  -0.08350   0.00000   0.28311
  13        3PX        -0.01675   0.00000   0.00164   0.00000   0.23905
  14        3PY         0.05522   0.00000   0.25716   0.00000  -0.25211
  15        3PZ         0.00000  -0.07810   0.00000  -0.28581   0.00000
  16        4S         -0.50934   0.00000  -1.40400   0.00000   1.46308
  17        4PX        -0.05435   0.00000  -0.30689   0.00000  -0.64626
  18        4PY         1.19540   0.00000  -0.13624   0.00000  -0.68256
  19        4PZ         0.00000  -0.45025   0.00000   0.83158   0.00000
  20        5D 0        0.17196   0.00000  -0.31691   0.00000   0.06495
  21        5D+1        0.00000  -0.01846   0.00000  -0.00895   0.00000
  22        5D-1        0.00000   0.39280   0.00000  -0.35820   0.00000
  23        5D+2        0.52423   0.00000  -0.33868   0.00000   0.20958
  24        5D-2        0.26691   0.00000   0.39705   0.00000   0.33147
  25 3   H  1S          0.04616  -0.07926  -0.21706   0.14988   0.01779
  26        2S         -0.17864   0.10186   0.63892  -0.11475  -0.19334
  27        3S         -0.08213  -0.17490  -0.13752   0.37194  -0.16425
  28        4PX         0.04676  -0.08833   0.13702  -0.01199   0.28665
  29        4PY        -0.25398   0.08694   0.25577  -0.38749   0.36187
  30        4PZ        -0.04941   0.01100  -0.04562  -0.33644   0.03878
  31 4   H  1S          0.18704   0.00000  -0.01140   0.00000   0.26773
  32        2S         -0.58568   0.00000   0.20149   0.00000  -0.51697
  33        3S          0.12433   0.00000   0.28105   0.00000   0.46395
  34        4PX         0.06543   0.00000   0.06447   0.00000   0.18023
  35        4PY        -0.50899   0.00000  -0.12642   0.00000  -0.09581
  36        4PZ         0.00000   0.09129   0.00000  -0.33564   0.00000
  37 5   N  1S         -0.00558   0.00000   0.05354   0.00000  -0.01478
  38        2S         -0.00641   0.00000   0.11107   0.00000  -0.03697
  39        2PX         0.04290   0.00000   0.07606   0.00000  -0.01669
  40        2PY         0.13085   0.00000  -0.05246   0.00000  -0.04249
  41        2PZ         0.00000   0.00521   0.00000   0.01186   0.00000
  42        3S         -0.14626   0.00000  -0.96067   0.00000   0.46483
  43        3PX         0.03946   0.00000   0.03142   0.00000  -0.07202
  44        3PY         0.26254   0.00000  -0.24691   0.00000   0.14744
  45        3PZ         0.00000  -0.11430   0.00000  -0.04949   0.00000
  46        4S          1.74783   0.00000   1.99974   0.00000  -1.37523
  47        4PX         0.42416   0.00000   0.73807   0.00000   0.21737
  48        4PY         0.39484   0.00000   0.58529   0.00000  -1.41770
  49        4PZ         0.00000   1.35157   0.00000  -0.02571   0.00000
  50        5D 0        0.17801   0.00000   0.12996   0.00000   0.11687
  51        5D+1        0.00000   0.16359   0.00000  -0.19681   0.00000
  52        5D-1        0.00000  -0.14562   0.00000   0.14122   0.00000
  53        5D+2        0.02659   0.00000  -0.13892   0.00000   0.05026
  54        5D-2       -0.14032   0.00000  -0.19256   0.00000  -0.05543
  55 6   H  1S          0.14346  -0.20048   0.04951   0.23197   0.20986
  56        2S         -0.61947   0.96157  -0.71312  -0.37803  -0.31017
  57        3S          0.17874  -0.12816   0.06110   0.27646  -0.02476
  58        4PX        -0.25242  -0.51934  -0.35716  -0.15287   0.15236
  59        4PY        -0.16167   0.00495  -0.14469   0.37413   0.56341
  60        4PZ        -0.04077  -0.42666  -0.09849  -0.25395  -0.06131
  61 7   H  1S          0.14346   0.20048   0.04951  -0.23197   0.20986
  62        2S         -0.61947  -0.96157  -0.71312   0.37803  -0.31017
  63        3S          0.17874   0.12816   0.06110  -0.27646  -0.02476
  64        4PX        -0.25242   0.51934  -0.35716   0.15287   0.15236
  65        4PY        -0.16167  -0.00495  -0.14469  -0.37413   0.56341
  66        4PZ         0.04077  -0.42666   0.09849  -0.25395   0.06131
                          41        42        43        44        45
                           V         V         V         V         V
     Eigenvalues --     1.87518   1.95603   2.00399   2.14011   2.15830
   1 1   H  1S         -0.19724   0.20674   0.27220  -0.36797   0.23610
   2        2S          0.51444  -0.44007  -0.40497   0.73062  -0.43115
   3        3S         -0.50810   0.36926   0.18809  -0.43715   0.16805
   4        4PX        -0.11815  -0.43658   0.17012  -0.16853  -0.36903
   5        4PY         0.03185   0.23691   0.41887  -0.39056   0.08946
   6        4PZ        -0.28271  -0.18229  -0.14167  -0.20823  -0.12016
   7 2   C  1S          0.00000  -0.00121   0.02607   0.00000   0.00541
   8        2S          0.00000  -0.00154   0.04121   0.00000   0.00210
   9        2PX         0.00000   0.28124  -0.05320   0.00000   0.17555
  10        2PY         0.00000  -0.11832  -0.08563   0.00000   0.10584
  11        2PZ         0.19778   0.00000   0.00000   0.30383   0.00000
  12        3S          0.00000  -0.01332  -0.16707   0.00000   0.09189
  13        3PX         0.00000  -0.59771   0.02537   0.00000  -0.31756
  14        3PY         0.00000   0.00466   0.11623   0.00000   0.02731
  15        3PZ        -0.38906   0.00000   0.00000  -0.58868   0.00000
  16        4S          0.00000   0.18655  -0.04840   0.00000   0.06218
  17        4PX         0.00000   0.74600  -0.05891   0.00000   0.15738
  18        4PY         0.00000  -0.26874  -0.39549   0.00000   0.20766
  19        4PZ         0.48158   0.00000   0.00000   0.35399   0.00000
  20        5D 0        0.00000   0.51063   0.24723   0.00000   0.48366
  21        5D+1        0.45193   0.00000   0.00000   0.64265   0.00000
  22        5D-1       -0.19300   0.00000   0.00000   0.47885   0.00000
  23        5D+2        0.00000  -0.15264   0.63284   0.00000  -0.29828
  24        5D-2        0.00000  -0.09937  -0.02944   0.00000   0.50923
  25 3   H  1S          0.19724   0.20674   0.27220   0.36797   0.23610
  26        2S         -0.51444  -0.44007  -0.40497  -0.73062  -0.43115
  27        3S          0.50810   0.36926   0.18809   0.43715   0.16805
  28        4PX         0.11815  -0.43658   0.17012   0.16853  -0.36903
  29        4PY        -0.03185   0.23691   0.41887   0.39056   0.08946
  30        4PZ        -0.28271   0.18229   0.14167  -0.20823   0.12016
  31 4   H  1S          0.00000  -0.33338   0.31522   0.00000  -0.06682
  32        2S          0.00000   0.69516  -0.50995   0.00000   0.24880
  33        3S          0.00000  -0.69214   0.32373   0.00000  -0.17983
  34        4PX         0.00000  -0.34131  -0.25026   0.00000   0.04965
  35        4PY         0.00000   0.07310   0.48143   0.00000  -0.53501
  36        4PZ        -0.47752   0.00000   0.00000  -0.50227   0.00000
  37 5   N  1S          0.00000   0.01993  -0.00151   0.00000  -0.01627
  38        2S          0.00000   0.03771   0.00592   0.00000  -0.02621
  39        2PX         0.00000  -0.05516   0.06057   0.00000   0.18933
  40        2PY         0.00000   0.02755   0.02556   0.00000  -0.04662
  41        2PZ        -0.12076   0.00000   0.00000   0.18806   0.00000
  42        3S          0.00000  -0.18225  -0.20012   0.00000   0.05966
  43        3PX         0.00000  -0.08473  -0.13249   0.00000   0.05718
  44        3PY         0.00000   0.13442   0.27536   0.00000  -0.04998
  45        3PZ        -0.32461   0.00000   0.00000   0.28017   0.00000
  46        4S          0.00000  -0.27609  -0.20129   0.00000   0.17745
  47        4PX         0.00000  -0.20379   0.06910   0.00000  -0.02199
  48        4PY         0.00000  -0.09349   0.31765   0.00000  -0.10962
  49        4PZ        -0.04973   0.00000   0.00000  -0.06170   0.00000
  50        5D 0        0.00000   0.20495  -0.20195   0.00000  -0.22426
  51        5D+1        0.32068   0.00000   0.00000  -0.23601   0.00000
  52        5D-1       -0.18683   0.00000   0.00000  -0.26925   0.00000
  53        5D+2        0.00000   0.01520  -0.01784   0.00000  -0.17184
  54        5D-2        0.00000  -0.34223   0.05391   0.00000  -0.12486
  55 6   H  1S         -0.37091   0.34521  -0.39046   0.21756  -0.52304
  56        2S          0.49096  -0.38523   0.67127  -0.14774   0.59826
  57        3S         -0.43341   0.19541  -0.22670   0.17215  -0.28519
  58        4PX         0.36957  -0.02116  -0.27005  -0.27328   0.04347
  59        4PY        -0.10473   0.01480  -0.19688  -0.06023   0.17837
  60        4PZ        -0.21754   0.29952   0.13225   0.22665  -0.25667
  61 7   H  1S          0.37091   0.34521  -0.39046  -0.21756  -0.52304
  62        2S         -0.49096  -0.38523   0.67127   0.14774   0.59826
  63        3S          0.43341   0.19541  -0.22670  -0.17215  -0.28519
  64        4PX        -0.36957  -0.02116  -0.27005   0.27328   0.04347
  65        4PY         0.10473   0.01480  -0.19688   0.06023   0.17837
  66        4PZ        -0.21754  -0.29952  -0.13225   0.22665   0.25667
                          46        47        48        49        50
                           V         V         V         V         V
     Eigenvalues --     2.30356   2.35001   2.37897   2.43402   2.47012
   1 1   H  1S         -0.64235  -0.54136   0.39244   0.00432  -0.27772
   2        2S          0.67184   1.20768  -1.01463   1.08021   0.13777
   3        3S         -0.21023  -0.48281   0.19647   0.19075  -0.22147
   4        4PX        -0.14052   0.35292   0.06040   0.39760  -0.36706
   5        4PY         0.30550   0.02353   0.17527  -0.46259   0.21482
   6        4PZ         0.14203  -0.25587   0.44946  -0.79920   0.01160
   7 2   C  1S         -0.05347   0.00000   0.00845   0.00000   0.01021
   8        2S         -0.09622   0.00000   0.02257   0.00000   0.02384
   9        2PX         0.02737   0.00000  -0.04327   0.00000  -0.73636
  10        2PY         0.33081   0.00000  -0.13376   0.00000   0.02099
  11        2PZ         0.00000   0.20743   0.00000  -0.64214   0.00000
  12        3S          0.56262   0.00000  -0.20924   0.00000  -0.19538
  13        3PX        -0.05946   0.00000  -1.27791   0.00000   0.15324
  14        3PY        -0.34899   0.00000   0.01479   0.00000  -0.02493
  15        3PZ         0.00000  -0.89351   0.00000  -0.62336   0.00000
  16        4S         -0.43585   0.00000  -0.08212   0.00000  -0.46975
  17        4PX        -0.00548   0.00000  -0.80913   0.00000  -0.38155
  18        4PY         0.09518   0.00000  -0.14814   0.00000   0.04899
  19        4PZ         0.00000  -0.27014   0.00000  -0.75925   0.00000
  20        5D 0        0.36463   0.00000   0.16591   0.00000   0.76709
  21        5D+1        0.00000  -0.16509   0.00000   0.84726   0.00000
  22        5D-1        0.00000  -0.27504   0.00000  -0.16723   0.00000
  23        5D+2        0.46245   0.00000  -0.23404   0.00000  -0.38694
  24        5D-2        0.10658   0.00000  -0.14891   0.00000  -0.08065
  25 3   H  1S         -0.64235   0.54136   0.39244  -0.00432  -0.27772
  26        2S          0.67184  -1.20768  -1.01463  -1.08021   0.13777
  27        3S         -0.21023   0.48281   0.19647  -0.19075  -0.22147
  28        4PX        -0.14052  -0.35292   0.06040  -0.39760  -0.36706
  29        4PY         0.30550  -0.02353   0.17527   0.46259   0.21482
  30        4PZ        -0.14203  -0.25587  -0.44946  -0.79920  -0.01160
  31 4   H  1S         -0.73620   0.00000  -0.72950   0.00000   0.42432
  32        2S          0.84925   0.00000   2.25539   0.00000   0.21053
  33        3S         -0.27994   0.00000  -0.32498   0.00000   0.44460
  34        4PX         0.18736   0.00000  -1.06086   0.00000  -0.65163
  35        4PY         0.19716   0.00000  -0.36852   0.00000  -0.31412
  36        4PZ         0.00000   0.35561   0.00000  -0.10689   0.00000
  37 5   N  1S         -0.01475   0.00000  -0.02202   0.00000  -0.00848
  38        2S         -0.02816   0.00000  -0.05427   0.00000  -0.02050
  39        2PX         0.06324   0.00000   0.03467   0.00000   0.00791
  40        2PY        -0.02022   0.00000  -0.03190   0.00000   0.01994
  41        2PZ         0.00000  -0.06685   0.00000   0.08835   0.00000
  42        3S          0.19235   0.00000   0.41386   0.00000   0.13749
  43        3PX        -0.02321   0.00000   0.25774   0.00000   0.11032
  44        3PY         0.17650   0.00000  -0.21190   0.00000  -0.10119
  45        3PZ         0.00000   0.90611   0.00000   0.11916   0.00000
  46        4S         -0.13122   0.00000   0.77282   0.00000   0.38201
  47        4PX        -0.02218   0.00000   0.75402   0.00000  -0.11507
  48        4PY        -0.04985   0.00000  -0.21581   0.00000   0.34464
  49        4PZ         0.00000   0.61837   0.00000   0.14710   0.00000
  50        5D 0       -0.01728   0.00000  -0.05323   0.00000   0.26112
  51        5D+1        0.00000   0.24566   0.00000   0.35839   0.00000
  52        5D-1        0.00000  -0.14277   0.00000   0.31824   0.00000
  53        5D+2        0.29538   0.00000   0.27704   0.00000  -0.13625
  54        5D-2        0.03361   0.00000   0.10012   0.00000   0.25838
  55 6   H  1S         -0.17662  -0.64055   0.27628   0.07211   0.09206
  56        2S          0.28863   1.75468  -1.02675   0.06389  -0.22915
  57        3S         -0.01251  -0.55665   0.11080  -0.01823   0.07776
  58        4PX        -0.07273  -0.42613   0.00434   0.04498   0.23391
  59        4PY        -0.01177   0.22237  -0.13649   0.17693  -0.22256
  60        4PZ        -0.03334   0.62826  -0.50141   0.14765   0.00091
  61 7   H  1S         -0.17662   0.64055   0.27628  -0.07211   0.09206
  62        2S          0.28863  -1.75468  -1.02675  -0.06389  -0.22915
  63        3S         -0.01251   0.55665   0.11080   0.01823   0.07776
  64        4PX        -0.07273   0.42613   0.00434  -0.04498   0.23391
  65        4PY        -0.01177  -0.22237  -0.13649  -0.17693  -0.22256
  66        4PZ         0.03334   0.62826   0.50141   0.14765  -0.00091
                          51        52        53        54        55
                           V         V         V         V         V
     Eigenvalues --     2.55073   2.57174   2.61539   2.75568   2.79339
   1 1   H  1S         -0.19511  -0.58569   0.01035  -0.22774   0.10896
   2        2S          1.25366   1.56615   0.29046  -0.40472  -0.82667
   3        3S          0.08042  -0.20304   0.07164  -0.23426  -0.19873
   4        4PX         0.14058   0.49774   0.16126  -0.26421  -0.29901
   5        4PY        -0.15344  -0.22184   0.13674   0.02461   0.13082
   6        4PZ        -0.83900  -0.35705  -0.18119   0.42742   0.30724
   7 2   C  1S          0.02887   0.00000   0.03150   0.00000  -0.02474
   8        2S          0.07832   0.00000   0.05918   0.00000  -0.07420
   9        2PX         0.15495   0.00000   0.26172   0.00000  -0.27666
  10        2PY        -0.28556   0.00000   0.52611   0.00000   0.31070
  11        2PZ         0.00000   0.20926   0.00000   0.44142   0.00000
  12        3S         -0.63537   0.00000  -0.40952   0.00000   0.51030
  13        3PX         0.78098   0.00000  -0.07372   0.00000   0.43936
  14        3PY        -0.04478   0.00000  -0.27207   0.00000   0.10753
  15        3PZ         0.00000  -1.08142   0.00000   0.00011   0.00000
  16        4S         -1.17561   0.00000  -1.23075   0.00000   1.90682
  17        4PX         0.47196   0.00000   0.20191   0.00000  -0.19833
  18        4PY        -0.27329   0.00000   0.52541   0.00000   0.10687
  19        4PZ         0.00000  -0.60790   0.00000   0.49750   0.00000
  20        5D 0       -0.22799   0.00000  -0.01724   0.00000   0.30153
  21        5D+1        0.00000  -0.16734   0.00000  -0.44104   0.00000
  22        5D-1        0.00000  -0.36370   0.00000   0.80499   0.00000
  23        5D+2       -0.18776   0.00000   0.47654   0.00000   0.11672
  24        5D-2        0.72267   0.00000   0.19572   0.00000  -0.16960
  25 3   H  1S         -0.19511   0.58569   0.01035   0.22774   0.10896
  26        2S          1.25366  -1.56615   0.29046   0.40472  -0.82667
  27        3S          0.08042   0.20304   0.07164   0.23426  -0.19873
  28        4PX         0.14058  -0.49774   0.16126   0.26421  -0.29901
  29        4PY        -0.15344   0.22184   0.13674  -0.02461   0.13082
  30        4PZ         0.83900  -0.35705   0.18119   0.42742  -0.30724
  31 4   H  1S          0.13439   0.00000  -0.17133   0.00000   0.50998
  32        2S         -0.70589   0.00000   0.09116   0.00000  -1.36978
  33        3S          0.10922   0.00000  -0.24687   0.00000   0.16443
  34        4PX         0.42616   0.00000   0.11824   0.00000   0.42219
  35        4PY         0.10618   0.00000   0.28604   0.00000   0.31360
  36        4PZ         0.00000   0.50773   0.00000  -0.02848   0.00000
  37 5   N  1S         -0.01368   0.00000  -0.01661   0.00000   0.00122
  38        2S         -0.03694   0.00000  -0.04430   0.00000  -0.00723
  39        2PX         0.06813   0.00000   0.02832   0.00000  -0.11997
  40        2PY         0.01437   0.00000   0.04698   0.00000   0.01580
  41        2PZ         0.00000   0.01361   0.00000   0.16799   0.00000
  42        3S          0.25055   0.00000   0.16765   0.00000   0.13537
  43        3PX         0.23498   0.00000   0.34907   0.00000   0.17250
  44        3PY        -0.24667   0.00000  -0.38226   0.00000  -0.09428
  45        3PZ         0.00000  -0.80923   0.00000  -0.07854   0.00000
  46        4S          1.30241   0.00000   2.49985   0.00000   0.14020
  47        4PX         0.56743   0.00000   0.38536   0.00000   0.40514
  48        4PY         0.04036   0.00000   0.67296   0.00000  -0.36791
  49        4PZ         0.00000  -0.56695   0.00000   0.52119   0.00000
  50        5D 0       -0.02505   0.00000   0.18887   0.00000  -0.70997
  51        5D+1        0.00000  -0.26073   0.00000   0.60807   0.00000
  52        5D-1        0.00000   0.07814   0.00000   0.72203   0.00000
  53        5D+2        0.47517   0.00000  -0.72023   0.00000   0.12263
  54        5D-2        0.22907   0.00000   0.05195   0.00000  -0.42841
  55 6   H  1S          0.34759   0.48471   0.38462   0.13740   0.45832
  56        2S         -1.17926  -1.53502  -1.45692   0.10400  -0.87574
  57        3S          0.09124   0.17823   0.26622   0.23088   0.14707
  58        4PX        -0.03256   0.39180   0.39293   0.10887  -0.26691
  59        4PY        -0.33705  -0.42580  -0.22623   0.34455   0.09289
  60        4PZ        -0.44680  -0.55634  -0.44798   0.03042  -0.33950
  61 7   H  1S          0.34759  -0.48471   0.38462  -0.13740   0.45832
  62        2S         -1.17926   1.53502  -1.45692  -0.10400  -0.87574
  63        3S          0.09124  -0.17823   0.26622  -0.23088   0.14707
  64        4PX        -0.03256  -0.39180   0.39293  -0.10887  -0.26691
  65        4PY        -0.33705   0.42580  -0.22623  -0.34455   0.09289
  66        4PZ         0.44680  -0.55634   0.44798   0.03042   0.33950
                          56        57        58        59        60
                           V         V         V         V         V
     Eigenvalues --     2.84859   2.99912   3.10676   3.40687   3.76431
   1 1   H  1S          0.47600   0.18308   0.22950  -0.18218   0.31691
   2        2S         -1.58065  -0.93644   0.10536  -0.55690   0.74765
   3        3S         -0.00677   0.05124  -0.00665   0.04265  -0.16007
   4        4PX        -0.35018  -0.17197   0.18962  -0.23744   0.12579
   5        4PY         0.27882   0.07529   0.11158   0.04525  -0.24541
   6        4PZ         0.45807   0.36443  -0.16208   0.47153  -0.57988
   7 2   C  1S         -0.05622  -0.03641   0.00000  -0.03580  -0.00299
   8        2S         -0.14561  -0.09050   0.00000  -0.07929  -0.00895
   9        2PX         0.10041   0.10657   0.00000   0.07348  -1.01363
  10        2PY         0.05413  -0.05599   0.00000  -0.97408  -0.20762
  11        2PZ         0.00000   0.00000   0.23901   0.00000   0.00000
  12        3S          0.98594   0.58162   0.00000   0.66795   0.11197
  13        3PX         0.08221  -0.12992   0.00000  -0.19579   3.08803
  14        3PY         0.51877   0.34522   0.00000   2.04630   0.48035
  15        3PZ         0.00000   0.00000  -0.58779   0.00000   0.00000
  16        4S          3.22151   1.99367   0.00000  -0.65239  -0.40728
  17        4PX         0.20762   0.11341   0.00000  -0.09188  -0.01288
  18        4PY        -0.11309  -0.26110   0.00000   0.36273   0.14268
  19        4PZ         0.00000   0.00000  -0.04264   0.00000   0.00000
  20        5D 0        0.00147  -0.03400   0.00000   0.41112  -0.88295
  21        5D+1        0.00000   0.00000   0.05018   0.00000   0.00000
  22        5D-1        0.00000   0.00000  -0.49907   0.00000   0.00000
  23        5D+2        0.24467   0.01319   0.00000   0.58772   0.71887
  24        5D-2        0.55551  -0.19431   0.00000  -0.10477   0.86818
  25 3   H  1S          0.47600   0.18308  -0.22950  -0.18218   0.31691
  26        2S         -1.58065  -0.93644  -0.10536  -0.55690   0.74765
  27        3S         -0.00677   0.05124   0.00665   0.04265  -0.16007
  28        4PX        -0.35018  -0.17197  -0.18962  -0.23744   0.12579
  29        4PY         0.27882   0.07529  -0.11158   0.04525  -0.24541
  30        4PZ        -0.45807  -0.36443  -0.16208  -0.47153   0.57988
  31 4   H  1S          0.13423   0.46302   0.00000  -0.06402  -0.75450
  32        2S         -1.71284  -1.27918   0.00000  -0.43382  -1.64709
  33        3S         -0.20970   0.02068   0.00000  -0.00874   0.37657
  34        4PX         0.97077   0.37870   0.00000   0.40467   1.38924
  35        4PY         0.09995   0.30556   0.00000   0.09785   0.49905
  36        4PZ         0.00000   0.00000   0.16633   0.00000   0.00000
  37 5   N  1S          0.01534  -0.04772   0.00000  -0.03194  -0.02041
  38        2S          0.02897  -0.10391   0.00000  -0.05816  -0.03750
  39        2PX        -0.04670   0.25160   0.00000   0.23231  -0.44088
  40        2PY         0.04909  -0.31637   0.00000   0.65390  -0.06656
  41        2PZ         0.00000   0.00000   0.55511   0.00000   0.00000
  42        3S         -0.04168   0.69455   0.00000   0.13261   0.15427
  43        3PX        -0.16694   0.26744   0.00000  -0.08353   0.65212
  44        3PY         0.16430  -0.08430   0.00000  -0.41836   0.05639
  45        3PZ         0.00000   0.00000   0.05989   0.00000   0.00000
  46        4S         -1.85545   1.26262   0.00000   2.20635   1.00658
  47        4PX        -0.25255   0.78287   0.00000   0.49271  -0.12509
  48        4PY        -0.14847  -0.88835   0.00000   0.97294   0.16151
  49        4PZ         0.00000   0.00000   0.99327   0.00000   0.00000
  50        5D 0        0.01076   0.85700   0.00000  -0.13168   0.19529
  51        5D+1        0.00000   0.00000   0.86092   0.00000   0.00000
  52        5D-1        0.00000   0.00000  -0.77128   0.00000   0.00000
  53        5D+2        0.05297   0.31365   0.00000  -0.50678  -0.14742
  54        5D-2        0.75901  -0.45041   0.00000  -0.13332  -0.27234
  55 6   H  1S          0.14108  -0.12871   0.43476   0.08293  -0.12170
  56        2S          0.49488  -1.37714   0.57113  -0.80247  -0.34792
  57        3S          0.00076  -0.19427   0.31467   0.11865   0.00280
  58        4PX        -0.10264   0.40328  -0.32325   0.09343   0.12020
  59        4PY        -0.13975  -0.41716   0.17634  -0.10189  -0.10692
  60        4PZ         0.46599  -0.75488   0.57580  -0.26345  -0.23415
  61 7   H  1S          0.14108  -0.12871  -0.43476   0.08293  -0.12170
  62        2S          0.49488  -1.37714  -0.57113  -0.80247  -0.34792
  63        3S          0.00076  -0.19427  -0.31467   0.11865   0.00280
  64        4PX        -0.10264   0.40328   0.32325   0.09343   0.12020
  65        4PY        -0.13975  -0.41716  -0.17634  -0.10189  -0.10692
  66        4PZ        -0.46599   0.75488   0.57580   0.26345   0.23415
                          61        62        63        64        65
                           V         V         V         V         V
     Eigenvalues --     3.82409   4.03220   4.77199   4.86295  23.90360
   1 1   H  1S         -0.66855  -0.21613   0.01831  -0.16341  -0.00746
   2        2S         -1.43919  -0.40888  -0.00450  -0.30647   0.26593
   3        3S          0.35794   0.12290  -0.08905   0.08434  -0.05973
   4        4PX        -0.67844  -0.17112   0.00246  -0.16090   0.08470
   5        4PY         0.50438   0.16411  -0.05430  -0.02388  -0.05226
   6        4PZ         0.98661   0.37419  -0.01777   0.25812  -0.14769
   7 2   C  1S          0.00000  -0.00119   0.00000   0.02431  -2.03777
   8        2S          0.00000  -0.00980   0.00000   0.00901   2.23649
   9        2PX         0.00000   0.52416   0.00000  -0.01259   0.00030
  10        2PY         0.00000  -0.31451   0.00000  -0.63016   0.01743
  11        2PZ        -1.12645   0.00000   0.10163   0.00000   0.00000
  12        3S          0.00000   0.15049   0.00000   0.18476  -0.71654
  13        3PX         0.00000  -1.50572   0.00000   0.04356  -0.00074
  14        3PY         0.00000   0.81268   0.00000   1.90283  -0.14004
  15        3PZ         3.38886   0.00000  -0.24749   0.00000   0.00000
  16        4S          0.00000  -0.69874   0.00000  -0.15478  -0.07735
  17        4PX         0.00000   0.21455   0.00000   0.04428   0.00274
  18        4PY         0.00000   0.26467   0.00000  -0.00272   0.02247
  19        4PZ        -0.14978   0.00000   0.19986   0.00000   0.00000
[...]
 Approx polarizability:  24.062  -0.800  27.445   0.000   0.000  27.554
 Calling FoFJK, ICntrl=    100127 FMM=F ISym2X=1 I1Cent= 0 IOpClX= 0 NMat=1 NMatS=1 NMatT=0.
 Full mass-weighted force constant matrix:
 Low frequencies ---  -15.2217   -0.0004    0.0005    0.0006   16.5113   33.4528
 Low frequencies ---  316.8485  850.0577  980.3943
 Harmonic frequencies (cm**-1), IR intensities (KM/Mole), Raman scattering
 activities (A**4/AMU), depolarization ratios for plane and unpolarized
 incident light, reduced masses (AMU), force constants (mDyne/A),
 and normal coordinates:
                     1                      2                      3
                    A"                     A'                     A"
 Frequencies --   316.8425               850.0577               980.3938
 Red. masses --     1.0305                 1.2397                 1.0523
 Frc consts  --     0.0610                 0.5278                 0.5959
 IR Inten    --    38.8291               165.1698                 0.0126
  Atom  AN      X      Y      Z        X      Y      Z        X      Y      Z
     1   1     0.31  -0.05   0.20    -0.10  -0.15  -0.02     0.03  -0.46   0.15
     2   6     0.00   0.00   0.00     0.02  -0.04   0.00     0.00   0.00  -0.06
     3   1    -0.31   0.05   0.20    -0.10  -0.15   0.02    -0.03   0.46   0.15
     4   1     0.00   0.00  -0.31    -0.11   0.25   0.00     0.00   0.00   0.28
     5   7     0.00   0.00  -0.04     0.08   0.10   0.00     0.00   0.00   0.00
     6   1     0.50   0.00   0.26    -0.50  -0.40  -0.11    -0.11  -0.44   0.12
     7   1    -0.50   0.00   0.26    -0.50  -0.40   0.11     0.11   0.44   0.12
                     4                      5                      6
                    A'                     A'                     A"
 Frequencies --  1057.5305              1171.3736              1352.7958
 Red. masses --     3.3949                 1.3979                 1.3451
 Frc consts  --     2.2370                 1.1301                 1.4504
 IR Inten    --     8.3972                 7.0242                 0.1966
  Atom  AN      X      Y      Z        X      Y      Z        X      Y      Z
     1   1    -0.13   0.11  -0.02    -0.23  -0.41  -0.08    -0.12   0.33  -0.07
     2   6     0.04   0.34   0.00     0.14  -0.04   0.00     0.00   0.00   0.14
     3   1    -0.13   0.11   0.02    -0.23  -0.41   0.08     0.12  -0.33  -0.07
     4   1    -0.12   0.63   0.00    -0.16   0.60   0.00     0.00   0.00  -0.30
     5   7     0.00  -0.29   0.00    -0.10   0.03   0.00     0.00   0.00  -0.10
     6   1    -0.07  -0.40  -0.01     0.17   0.16   0.08    -0.06  -0.54   0.10
     7   1    -0.07  -0.40   0.01     0.17   0.16  -0.08     0.06   0.54   0.10
                     7                      8                      9
                    A'                     A'                     A"
 Frequencies --  1461.8983              1497.1721              1519.2793
 Red. masses --     1.1584                 1.0558                 1.0332
 Frc consts  --     1.4586                 1.3944                 1.4052
 IR Inten    --     2.2737                 7.4905                 3.4080
  Atom  AN      X      Y      Z        X      Y      Z        X      Y      Z
     1   1    -0.08   0.55  -0.31     0.50   0.01   0.31    -0.35  -0.37  -0.05
     2   6     0.03  -0.11   0.00    -0.05  -0.04   0.00     0.00   0.00   0.04
     3   1    -0.08   0.55   0.31     0.50   0.01  -0.31     0.35   0.37  -0.05
     4   1    -0.19   0.37   0.00    -0.24   0.48   0.00     0.00   0.00  -0.68
     5   7     0.00  -0.01   0.00    -0.01   0.00   0.00     0.00   0.00   0.02
     6   1     0.00   0.03  -0.02     0.01   0.02   0.00     0.01   0.08  -0.01
     7   1     0.00   0.03   0.02     0.01   0.02   0.00    -0.01  -0.08  -0.01
                    10                     11                     12
                    A'                     A'                     A'
 Frequencies --  1668.5862              2946.6988              3051.3780
 Red. masses --     1.0837                 1.0607                 1.0723
 Frc consts  --     1.7777                 5.4262                 5.8823
 IR Inten    --    22.9020               104.0454                41.5738
  Atom  AN      X      Y      Z        X      Y      Z        X      Y      Z
     1   1    -0.01  -0.06   0.01    -0.10   0.05   0.12    -0.33   0.22   0.57
     2   6     0.02   0.01   0.00    -0.06  -0.04   0.00     0.07  -0.03   0.00
     3   1    -0.01  -0.06  -0.01    -0.10   0.05  -0.12    -0.33   0.22  -0.57
     4   1     0.01   0.03   0.00     0.89   0.39   0.00    -0.18  -0.09   0.00
     5   7     0.03  -0.07   0.00     0.00   0.00   0.00     0.00   0.00   0.00
     6   1    -0.32   0.47  -0.41     0.00   0.00   0.01     0.01   0.00  -0.01
     7   1    -0.32   0.47   0.41     0.00   0.00  -0.01     0.01   0.00   0.01
                    13                     14                     15
                    A"                     A'                     A"
 Frequencies --  3086.8144              3490.8641              3565.4891
 Red. masses --     1.1029                 1.0491                 1.0930
 Frc consts  --     6.1919                 7.5325                 8.1865
 IR Inten    --    38.5545                 1.4893                 0.0897
  Atom  AN      X      Y      Z        X      Y      Z        X      Y      Z
     1   1    -0.36   0.22   0.56    -0.01   0.00   0.01     0.01  -0.01  -0.01
     2   6     0.00   0.00  -0.09     0.00   0.00   0.00     0.00   0.00   0.00
     3   1     0.36  -0.22   0.56    -0.01   0.00  -0.01    -0.01   0.01  -0.01
     4   1     0.00   0.00  -0.02    -0.01   0.00   0.00     0.00   0.00   0.00
     5   7     0.00   0.00   0.00     0.04  -0.04   0.00     0.00   0.00   0.08
     6   1     0.01   0.00  -0.01    -0.31   0.24   0.59     0.35  -0.24  -0.56
     7   1    -0.01   0.00  -0.01    -0.31   0.24  -0.59    -0.35   0.24  -0.56

 -------------------
 - Thermochemistry -
 -------------------
 Temperature   298.150 Kelvin.  Pressure   1.00000 Atm.
 Atom     1 has atomic number  1 and mass   1.00783
 Atom     2 has atomic number  6 and mass  12.00000
 Atom     3 has atomic number  1 and mass   1.00783
 Atom     4 has atomic number  1 and mass   1.00783
 Atom     5 has atomic number  7 and mass  14.00307
 Atom     6 has atomic number  1 and mass   1.00783
 Atom     7 has atomic number  1 and mass   1.00783
 Molecular mass:    31.04220 amu.
 Principal axes and moments of inertia in atomic units:
                           1         2         3
     Eigenvalues --    17.44183  79.49755  82.66954
           X           -0.05827   0.00000   0.99830
           Y            0.99830   0.00000   0.05827
           Z            0.00000   1.00000   0.00000
 This molecule is an asymmetric top.
 Rotational symmetry number  1.
 Rotational temperatures (Kelvin)      4.96587     1.08952     1.04771
 Rotational constants (GHZ):         103.47204    22.70185    21.83079
 Zero-point vibrational energy     167579.9 (Joules/Mol)
                                   40.05256 (Kcal/Mol)
 Warning -- explicit consideration of   1 degrees of freedom as
           vibrations may cause significant error
 Vibrational temperatures:    455.87  1223.04  1410.57  1521.55  1685.34
          (Kelvin)           1946.37  2103.34  2154.09  2185.90  2400.72
                             4239.64  4390.25  4441.23  5022.57  5129.94
 
 Zero-point correction=                           0.063828 (Hartree/Particle)
 Thermal correction to Energy=                    0.067240
 Thermal correction to Enthalpy=                  0.068184
 Thermal correction to Gibbs Free Energy=         0.040915
 Sum of electronic and zero-point Energies=            -95.824616
 Sum of electronic and thermal Energies=               -95.821204
 Sum of electronic and thermal Enthalpies=             -95.820260
 Sum of electronic and thermal Free Energies=          -95.847528
 
                     E (Thermal)             CV                S
                      KCal/Mol        Cal/Mol-Kelvin    Cal/Mol-Kelvin
 Total                   42.194              9.514             57.392
 Electronic               0.000              0.000              0.000
 Translational            0.889              2.981             36.231
 Rotational               0.889              2.981             19.378
 Vibrational             40.416              3.552              1.783
 Vibration     1          0.704              1.641              1.326
                       Q            Log10(Q)             Ln(Q)
 Total Bot       0.151459D-18        -18.819705        -43.333972
 Total V=0       0.345932D+11         10.538991         24.266924
 Vib (Bot)       0.581325D-29        -29.235581        -67.317413
 Vib (Bot)    1  0.594415D+00         -0.225910         -0.520178
 Vib (V=0)       0.132775D+01          0.123115          0.283484
 Vib (V=0)    1  0.127674D+01          0.106103          0.244312
 Electronic      0.100000D+01          0.000000          0.000000
 Translational   0.679804D+07          6.832384         15.732145
 Rotational      0.383259D+04          3.583492          8.251295
 ***** Axes restored to original set *****
 -------------------------------------------------------------------
 Center     Atomic                   Forces (Hartrees/Bohr)
 Number     Number              X              Y              Z
 -------------------------------------------------------------------
      1        1           0.000010719   -0.000017269    0.000030859
      2        6          -0.000003626    0.000295958    0.000002564
      3        1          -0.000025521   -0.000017269   -0.000020392
      4        1           0.000069426   -0.000036942   -0.000049092
      5        7           0.000178048   -0.000299122   -0.000125899
      6        1          -0.000083420    0.000037322    0.000124965
      7        1          -0.000145625    0.000037322    0.000036994
 -------------------------------------------------------------------
 Cartesian Forces:  Max     0.000299122 RMS     0.000116271

 GradGradGradGradGradGradGradGradGradGradGradGradGradGradGradGradGradGrad
 Berny optimization.
 Internal  Forces:  Max     0.000222861 RMS     0.000072908
 Search for a local minimum.
 Step number   1 out of a maximum of    2
 All quantities printed in internal units (Hartrees-Bohrs-Radians)
 Second derivative matrix not updated -- analytic derivatives used.
 ITU=  0
     Eigenvalues ---    0.00258   0.03107   0.06193   0.06358   0.12563
     Eigenvalues ---    0.14496   0.14538   0.17712   0.20123   0.30755
     Eigenvalues ---    0.33133   0.33293   0.36735   0.44559   0.44580
 Angle between quadratic step and forces=  53.39 degrees.
 Linear search not attempted -- first point.
 Iteration  1 RMS(Cart)=  0.00050497 RMS(Int)=  0.00000094
 Iteration  2 RMS(Cart)=  0.00000068 RMS(Int)=  0.00000063
 ClnCor:  largest displacement from symmetrization is 4.24D-11 for atom     7.
 Variable       Old X    -DE/DX   Delta X   Delta X   Delta X     New X
                                 (Linear)    (Quad)   (Total)
    R1        2.06591  -0.00003   0.00000  -0.00011  -0.00011   2.06580
    R2        2.06591  -0.00003   0.00000  -0.00011  -0.00011   2.06580
    R3        2.08217  -0.00007   0.00000  -0.00035  -0.00035   2.08183
    R4        2.76958   0.00022   0.00000   0.00102   0.00102   2.77060
    R5        1.91775   0.00013   0.00000   0.00044   0.00044   1.91820
    R6        1.91775   0.00013   0.00000   0.00044   0.00044   1.91820
    A1        1.86685  -0.00001   0.00000  -0.00012  -0.00012   1.86673
    A2        1.88037  -0.00002   0.00000   0.00018   0.00018   1.88055
    A3        1.90701  -0.00003   0.00000  -0.00034  -0.00034   1.90667
    A4        1.88037  -0.00002   0.00000   0.00018   0.00018   1.88055
    A5        1.90701  -0.00003   0.00000  -0.00034  -0.00034   1.90667
    A6        2.01650   0.00009   0.00000   0.00041   0.00041   2.01691
    A7        1.92199  -0.00001   0.00000  -0.00089  -0.00089   1.92110
    A8        1.92199  -0.00001   0.00000  -0.00089  -0.00089   1.92110
    A9        1.85634  -0.00005   0.00000  -0.00157  -0.00157   1.85477
    D1        3.13923   0.00002   0.00000   0.00123   0.00123   3.14046
    D2       -1.10221  -0.00006   0.00000  -0.00176  -0.00176  -1.10396
    D3        1.10221   0.00006   0.00000   0.00176   0.00176   1.10396
    D4       -3.13923  -0.00002   0.00000  -0.00123  -0.00123  -3.14046
    D5       -1.02087   0.00004   0.00000   0.00149   0.00149  -1.01938
    D6        1.02087  -0.00004   0.00000  -0.00149  -0.00149   1.01938
         Item               Value     Threshold  Converged?
 Maximum Force            0.000223     0.000450     YES
 RMS     Force            0.000073     0.000300     YES
 Maximum Displacement     0.001522     0.001800     YES
 RMS     Displacement     0.000505     0.001200     YES
 Predicted change in Energy=-4.427527D-07
 Optimization completed.
    -- Stationary point found.
                           ----------------------------
                           !   Optimized Parameters   !
                           ! (Angstroms and Degrees)  !
 --------------------------                            --------------------------
 ! Name  Definition              Value          Derivative Info.                !
 --------------------------------------------------------------------------------
 ! R1    R(1,2)                  1.0932         -DE/DX =    0.0                 !
 ! R2    R(2,3)                  1.0932         -DE/DX =    0.0                 !
 ! R3    R(2,4)                  1.1018         -DE/DX =   -0.0001              !
 ! R4    R(2,5)                  1.4656         -DE/DX =    0.0002              !
 ! R5    R(5,6)                  1.0148         -DE/DX =    0.0001              !
 ! R6    R(5,7)                  1.0148         -DE/DX =    0.0001              !
 ! A1    A(1,2,3)              106.9628         -DE/DX =    0.0                 !
 ! A2    A(1,2,4)              107.7371         -DE/DX =    0.0                 !
 ! A3    A(1,2,5)              109.2636         -DE/DX =    0.0                 !
 ! A4    A(3,2,4)              107.7371         -DE/DX =    0.0                 !
 ! A5    A(3,2,5)              109.2636         -DE/DX =    0.0                 !
 ! A6    A(4,2,5)              115.5372         -DE/DX =    0.0001              !
 ! A7    A(2,5,6)              110.1221         -DE/DX =    0.0                 !
 ! A8    A(2,5,7)              110.1221         -DE/DX =    0.0                 !
 ! A9    A(6,5,7)              106.3606         -DE/DX =    0.0                 !
 ! D1    D(1,2,5,6)            179.8648         -DE/DX =    0.0                 !
 ! D2    D(1,2,5,7)            -63.1518         -DE/DX =   -0.0001              !
 ! D3    D(3,2,5,6)             63.1518         -DE/DX =    0.0001              !
 ! D4    D(3,2,5,7)           -179.8648         -DE/DX =    0.0                 !
 ! D5    D(4,2,5,6)            -58.4917         -DE/DX =    0.0                 !
 ! D6    D(4,2,5,7)             58.4917         -DE/DX =    0.0                 !
 --------------------------------------------------------------------------------
 GradGradGradGradGradGradGradGradGradGradGradGradGradGradGradGradGradGrad


 Test job not archived.
 1\1\GINC-TERMINUS\Freq\RB3LYP\6-311G(2d,d,p)\C1H5N1\SEBASTIAN\01-May-2
 022\0\\#N Geom=AllCheck Guess=TCheck SCRF=Check Test GenChk RB3LYP/6-3
 11G(2d,d,p) Freq\\prueba para metilamina\\0,1\H,0.011720161,0.01162025
 74,0.0046642529\C,-0.012206287,0.0135549322,1.0976311483\H,1.026228266
 8,0.0116202574,1.4393953753\H,-0.4704755437,0.9617284967,1.4216764474\
 N,-0.6785924583,-1.2037691425,1.5688373289\H,-0.7060290574,-1.21642762
 76,2.5832172993\H,-1.644104599,-1.2164276276,1.2565781459\\Version=EM6
 4L-G09RevB.01\State=1-A'\HF=-95.8884435\RMSD=1.807e-09\RMSF=1.163e-04\
 ZeroPoint=0.0638278\Thermal=0.0672397\Dipole=-0.2967745,0.3990051,0.20
 98512\DipoleDeriv=0.0630341,-0.0085253,-0.0006088,-0.0271674,0.0229517
 ,-0.0064152,0.0247052,0.0285966,-0.182519,0.2983618,0.119569,-0.083220
 7,0.039712,0.5320213,-0.0280807,-0.0832207,-0.0845481,0.2395159,-0.162
 8081,-0.0298029,-0.0551421,-0.0030075,0.0229517,0.027752,-0.080456,-0.
 0014945,0.0433231,-0.0245447,0.0835445,0.0533186,0.0345823,-0.2987773,
 -0.0244534,0.0533186,-0.0590749,0.0131573,-0.3104561,-0.0076826,0.0835
 131,-0.0205381,-0.7270817,0.0145227,0.0835131,0.0054324,-0.2514034,0.1
 662033,-0.0969998,0.051312,-0.0603737,0.2239671,-0.0603694,0.020122,0.
 0294542,-0.0290338,-0.0297903,-0.0601029,-0.0491722,0.0367923,0.223967
 1,0.077044,-0.0179822,0.0816342,0.1669598\Polar=20.9518054,1.8106589,2
 0.8775176,-0.0043017,-1.2803292,20.9487637\PG=CS [SG(C1H1N1),X(H4)]\NI
 mag=0\\0.04795327,0.00408769,0.05665992,-0.00470954,0.00288299,0.33339
 053,-0.04854441,-0.00006059,0.00202609,0.55219747,0.00110443,-0.048480
 92,-0.00665116,-0.02365678,0.48080499,-0.00118437,-0.01381175,-0.30579
 582,0.02562042,0.01672787,0.57031384,0.00182210,0.00059974,-0.00041824
 ,-0.27747685,0.00663892,-0.07891375,0.30463541,-0.00088062,-0.00045191
 ,-0.00094746,0.01300165,-0.04848092,0.00466104,-0.00135555,0.05665992,
 -0.03110213,0.00114607,-0.00932203,-0.08212421,0.00117579,-0.07686338,
 0.08604131,-0.00481491,0.07670839,0.00014595,-0.00036050,-0.00035867,-
 0.10045193,0.08666055,0.03336385,-0.01365754,0.02536122,0.01117748,0.1
 0189778,0.00163841,-0.00015178,-0.00197915,0.08811630,-0.20564179,-0.0
 6230763,0.00241210,-0.00015178,-0.00088500,-0.09284402,0.23781577,0.01
 605775,-0.02702709,-0.00983251,0.03336385,-0.06127826,-0.07686012,-0.0
 0523894,0.00934892,0.00397097,-0.03817828,0.06565064,0.07490166,0.0003
 5044,-0.00020716,0.00109185,-0.10886438,-0.07995557,0.00566823,-0.0151
 1469,-0.03251080,0.01319756,0.00959424,0.00080823,-0.00426154,0.549325
 78,-0.00381536,-0.00445388,0.00535557,-0.04032284,-0.16463971,0.028512
 56,-0.00632106,-0.00445388,0.00181197,-0.01928303,-0.03408475,0.013635
 16,0.11527368,0.25788405,0.01866530,0.03440967,-0.01006262,0.00566823,
 0.05653713,-0.10485634,-0.00437589,-0.01127458,0.00540251,-0.00426154,
 -0.00057150,0.00658087,0.08935864,-0.08151080,0.61251188,-0.00178132,-
 0.00419142,0.00196492,0.00026523,0.00337516,0.01992224,-0.00024916,0.0
 0034060,0.00034492,0.00039622,-0.00037437,-0.00108404,-0.05019698,-0.0
 2072041,0.02078617,0.05213995,-0.00291563,-0.00437096,0.00127593,-0.00
 172391,-0.00678082,0.03688889,0.00020070,0.00124954,-0.00075750,0.0008
 8411,0.00110716,0.00075628,-0.02015118,-0.02512592,-0.02488294,0.02031
 466,0.03646003,0.00182089,0.00271462,0.00160697,0.00167181,-0.00499385
 ,-0.01166427,0.00029641,-0.00001984,0.00031863,-0.00125243,-0.00039048
 ,0.00145909,-0.00743679,0.01899024,-0.42223687,0.00028229,-0.01314770,
 0.44438354,0.00005399,0.00013224,0.00040359,-0.01712513,0.00583330,-0.
 00447661,0.00004072,-0.00395651,0.00246508,0.00207528,0.00024336,-0.00
 065880,-0.38509441,-0.02481097,-0.12584091,-0.00057394,0.00339125,0.00
 461783,0.40062349,0.00078108,0.00124954,0.00006328,-0.03535382,-0.0067
 8082,-0.01067097,-0.00217484,-0.00437096,0.00232358,-0.00041832,0.0011
 0717,-0.00108564,0.01674280,-0.02512592,0.02729303,0.00125578,-0.00253
 903,-0.00315298,0.01916732,0.03646003,0.00045210,-0.00031451,0.0000154
 8,0.01377382,-0.00151751,0.00572609,0.00260911,0.00304684,-0.00021508,
 -0.00049040,0.00048313,-0.00021996,-0.09761795,0.01320531,-0.08733944,
 -0.04221649,-0.00013297,-0.01386708,0.12348982,-0.01477028,0.09590000\
 \-0.00001072,0.00001727,-0.00003086,0.00000363,-0.00029596,-0.00000256
 ,0.00002552,0.00001727,0.00002039,-0.00006943,0.00003694,0.00004909,-0
 .00017805,0.00029912,0.00012590,0.00008342,-0.00003732,-0.00012497,0.0
 0014563,-0.00003732,-0.00003699\\\@


 IF THE FACTS DO NOT CONFORM TO THE THEORY, THEY MUST BE DISPOSED OF.
 Job cpu time:  0 days  0 hours  0 minutes 18.2 seconds.
 File lengths (MBytes):  RWF=      6 Int=      0 D2E=      0 Chk=      1 Scr=      1
 Normal termination of Gaussian 09 at Sun May  1 15:47:45 2022.
