 Entering Gaussian System, Link 0=g09
 Input=metilamina-v3.inp
 Output=metilamina-v3.log
 Initial command:
 /usr/local/g09/l1.exe /home/g09scr/Gau-25917.inp -scrdir=/home/g09scr/
 Entering Link 1 = /usr/local/g09/l1.exe PID=     25919.
  
 Copyright (c) 1988,1990,1992,1993,1995,1998,2003,2009,2010,
            Gaussian, Inc.  All Rights Reserved.
  
 This is part of the Gaussian(R) 09 program.  It is based on
 the Gaussian(R) 03 system (copyright 2003, Gaussian, Inc.),
 the Gaussian(R) 98 system (copyright 1998, Gaussian, Inc.),
 the Gaussian(R) 94 system (copyright 1995, Gaussian, Inc.),
 the Gaussian 92(TM) system (copyright 1992, Gaussian, Inc.),
 the Gaussian 90(TM) system (copyright 1990, Gaussian, Inc.),
 the Gaussian 88(TM) system (copyright 1988, Gaussian, Inc.),
 the Gaussian 86(TM) system (copyright 1986, Carnegie Mellon
 University), and the Gaussian 82(TM) system (copyright 1983,
 Carnegie Mellon University). Gaussian is a federally registered
 trademark of Gaussian, Inc.
  
 This software contains proprietary and confidential information,
 including trade secrets, belonging to Gaussian, Inc.
  
 This software is provided under written license and may be
 used, copied, transmitted, or stored only in accord with that
 written license.
  
 The following legend is applicable only to US Government
 contracts under FAR:
  
                    RESTRICTED RIGHTS LEGEND
  
 Use, reproduction and disclosure by the US Government is
 subject to restrictions as set forth in subparagraphs (a)
 and (c) of the Commercial Computer Software - Restricted
 Rights clause in FAR 52.227-19.
  
 Gaussian, Inc.
 340 Quinnipiac St., Bldg. 40, Wallingford CT 06492
  
  
 ---------------------------------------------------------------
 Warning -- This program may not be used in any manner that
 competes with the business of Gaussian, Inc. or will provide
 assistance to any competitor of Gaussian, Inc.  The licensee
 of this program is prohibited from giving any competitor of
 Gaussian, Inc. access to this program.  By using this program,
 the user acknowledges that Gaussian, Inc. is engaged in the
 business of creating and licensing software in the field of
 computational chemistry and represents and warrants to the
 licensee that it is not a competitor of Gaussian, Inc. and that
 it will not use this program in any manner prohibited above.
 ---------------------------------------------------------------
  

 Cite this work as:
 Gaussian 09, Revision B.01,
 M. J. Frisch, G. W. Trucks, H. B. Schlegel, G. E. Scuseria, 
 M. A. Robb, J. R. Cheeseman, G. Scalmani, V. Barone, B. Mennucci, 
 G. A. Petersson, H. Nakatsuji, M. Caricato, X. Li, H. P. Hratchian, 
 A. F. Izmaylov, J. Bloino, G. Zheng, J. L. Sonnenberg, M. Hada, 
 M. Ehara, K. Toyota, R. Fukuda, J. Hasegawa, M. Ishida, T. Nakajima, 
 Y. Honda, O. Kitao, H. Nakai, T. Vreven, J. A. Montgomery, Jr., 
 J. E. Peralta, F. Ogliaro, M. Bearpark, J. J. Heyd, E. Brothers, 
 K. N. Kudin, V. N. Staroverov, T. Keith, R. Kobayashi, J. Normand, 
 K. Raghavachari, A. Rendell, J. C. Burant, S. S. Iyengar, J. Tomasi, 
 M. Cossi, N. Rega, J. M. Millam, M. Klene, J. E. Knox, J. B. Cross, 
 V. Bakken, C. Adamo, J. Jaramillo, R. Gomperts, R. E. Stratmann, 
 O. Yazyev, A. J. Austin, R. Cammi, C. Pomelli, J. W. Ochterski, 
 R. L. Martin, K. Morokuma, V. G. Zakrzewski, G. A. Voth, 
 P. Salvador, J. J. Dannenberg, S. Dapprich, A. D. Daniels, 
 O. Farkas, J. B. Foresman, J. V. Ortiz, J. Cioslowski, 
 and D. J. Fox, Gaussian, Inc., Wallingford CT, 2010.
 
 ******************************************
 Gaussian 09:  EM64L-G09RevB.01 12-Aug-2010
                30-Apr-2022 
 ******************************************
 %nprocshared=4
 Will use up to    4 processors via shared memory.
 %mem=30gb
 %NoSave
 %Chk=metilamina.chk
 ----------------------------------------------------------------------
 #MaxDisk=2600gb #B3LyP/6-311g(2d,d,p) fopt freq gfinput iop(6/7=3) tes
 t
 ----------------------------------------------------------------------
 1/14=-1,18=20,19=15,26=3,38=1/1,3;
 2/9=110,12=2,14=103,17=6,18=5,40=1/2;
 3/5=4,6=6,7=700,11=2,16=1,24=10,25=1,30=1,71=1,74=-5/1,2,3;
 4//1;
 5/5=2,38=5/2;
 6/7=3,8=2,9=2,10=2,28=1/1;
 7//1,2,3,16;
 1/14=-1,18=20,19=15/3(2);
 2/9=110/2;
 99//99;
 2/9=110/2;
 3/5=4,6=6,7=700,11=2,16=1,25=1,30=1,71=1,74=-5/1,2,3;
 4/5=5,16=3/1;
 5/5=2,38=5/2;
 7//1,2,3,16;
 1/14=-1,18=20,19=15/3(-5);
 2/9=110/2;
 6/7=3,8=2,9=2,10=2,19=2,28=1/1;
 99/9=1/99;
 ----------------------
 prueba para metilamina
 ----------------------
 Symbolic Z-matrix:
 Charge =  0 Multiplicity = 1
 c
 n                    1    nc2
 h                    2    hn3      1    hnc3
 h                    1    hc4      2    hcn4     3    dih4     0
 h                    1    hc5      2    hcn5     3    dih5     0
 h                    1    hc6      2    hcn6     3    dih6     0
 h                    2    hn7      1    hnc7     3    dih7     0
       Variables:
  nc2                   1.43926                  
  hn3                   1.00109                  
  hnc3                121.117                    
  hc4                   1.09263                  
  hcn4                109.055                    
  dih4                180.                       
  hc5                   1.10022                  
  hcn5                113.263                    
  dih5                -61.332                    
  hc6                   1.10022                  
  hcn6                113.263                    
  dih6                 61.332                    
  hn7                   1.008                    
  hnc7                120.                       
  dih7                120.                       
 

 GradGradGradGradGradGradGradGradGradGradGradGradGradGradGradGradGradGrad
 Berny optimization.
 Initialization pass.
                           ----------------------------
                           !    Initial Parameters    !
                           ! (Angstroms and Degrees)  !
 --------------------------                            --------------------------
 ! Name  Definition              Value          Derivative Info.                !
 --------------------------------------------------------------------------------
 ! R1    R(1,2)                  1.4393         estimate D2E/DX2                !
 ! R2    R(1,4)                  1.0926         estimate D2E/DX2                !
 ! R3    R(1,5)                  1.1002         estimate D2E/DX2                !
 ! R4    R(1,6)                  1.1002         estimate D2E/DX2                !
 ! R5    R(2,3)                  1.0011         estimate D2E/DX2                !
 ! R6    R(2,7)                  1.008          estimate D2E/DX2                !
 ! A1    A(2,1,4)              109.055          estimate D2E/DX2                !
 ! A2    A(2,1,5)              113.263          estimate D2E/DX2                !
 ! A3    A(2,1,6)              113.263          estimate D2E/DX2                !
 ! A4    A(4,1,5)              106.7167         estimate D2E/DX2                !
 ! A5    A(4,1,6)              106.7167         estimate D2E/DX2                !
 ! A6    A(5,1,6)              107.4297         estimate D2E/DX2                !
 ! A7    A(1,2,3)              121.117          estimate D2E/DX2                !
 ! A8    A(1,2,7)              120.0            estimate D2E/DX2                !
 ! A9    A(3,2,7)               96.4488         estimate D2E/DX2                !
 ! D1    D(4,1,2,3)            180.0            estimate D2E/DX2                !
 ! D2    D(4,1,2,7)            -60.0            estimate D2E/DX2                !
 ! D3    D(5,1,2,3)            -61.332          estimate D2E/DX2                !
 ! D4    D(5,1,2,7)             58.668          estimate D2E/DX2                !
 ! D5    D(6,1,2,3)             61.332          estimate D2E/DX2                !
 ! D6    D(6,1,2,7)           -178.668          estimate D2E/DX2                !
 --------------------------------------------------------------------------------
 Trust Radius=3.00D-01 FncErr=1.00D-07 GrdErr=1.00D-06
 Number of steps in this run=     31 maximum allowed number of steps=    100.
 GradGradGradGradGradGradGradGradGradGradGradGradGradGradGradGradGradGrad

                          Input orientation:                          
 ---------------------------------------------------------------------
 Center     Atomic      Atomic             Coordinates (Angstroms)
 Number     Number       Type             X           Y           Z
 ---------------------------------------------------------------------
      1          6           0        0.000000    0.000000    0.000000
      2          7           0        0.000000    0.000000    1.439261
      3          1           0        0.857050    0.000000    1.956613
      4          1           0       -1.032762    0.000000   -0.356718
      5          1           0        0.484904    0.886871   -0.434536
      6          1           0        0.484904   -0.886871   -0.434536
      7          1           0       -0.436477    0.756000    1.943261
 ---------------------------------------------------------------------
                    Distance matrix (angstroms):
                    1          2          3          4          5
     1  C    0.000000
     2  N    1.439261   0.000000
     3  H    2.136087   1.001093   0.000000
     4  H    1.092632   2.071747   2.987120   0.000000
     5  H    1.100224   2.129034   2.577329   1.759518   0.000000
     6  H    1.100224   2.129034   2.577329   1.759518   1.773741
     7  H    2.130331   1.008000   1.498307   2.493390   2.553427
                    6          7
     6  H    0.000000
     7  H    3.033461   0.000000
 Stoichiometry    CH5N
 Framework group  C1[X(CH5N)]
 Deg. of freedom    15
 Full point group                 C1      NOp   1
 Largest Abelian subgroup         C1      NOp   1
 Largest concise Abelian subgroup C1      NOp   1
                         Standard orientation:                         
 ---------------------------------------------------------------------
 Center     Atomic      Atomic             Coordinates (Angstroms)
 Number     Number       Type             X           Y           Z
 ---------------------------------------------------------------------
      1          6           0        0.709563   -0.002250    0.018020
      2          7           0       -0.723796   -0.007863   -0.112074
      3          1           0       -1.276675   -0.740560    0.287509
      4          1           0        1.110186    0.879625   -0.487591
      5          1           0        1.050870    0.049543    1.062683
      6          1           0        1.191161   -0.877464   -0.443018
      7          1           0       -1.266349    0.757397    0.256812
 ---------------------------------------------------------------------
 Rotational constants (GHZ):    110.8408495     22.6715366     21.8669677
 Standard basis: 6-311G(2d,d,p) (5D, 7F)
 AO basis set in the form of general basis input (Overlap normalization):
      1 0
 S   6 1.00       0.000000000000
      0.4563240000D+04  0.1966650249D-02
      0.6820240000D+03  0.1523060193D-01
      0.1549730000D+03  0.7612690966D-01
      0.4445530000D+02  0.2608010331D+00
      0.1302900000D+02  0.6164620782D+00
      0.1827730000D+01  0.2210060280D+00
 SP   3 1.00       0.000000000000
      0.2096420000D+02  0.1146600807D+00  0.4024869267D-01
      0.4803310000D+01  0.9199996477D+00  0.2375939567D+00
      0.1459330000D+01 -0.3030682134D-02  0.8158538515D+00
 SP   1 1.00       0.000000000000
      0.4834560000D+00  0.1000000000D+01  0.1000000000D+01
 SP   1 1.00       0.000000000000
      0.1455850000D+00  0.1000000000D+01  0.1000000000D+01
 D   1 1.00       0.000000000000
      0.6260000000D+00  0.1000000000D+01
 ****
      2 0
 S   6 1.00       0.000000000000
      0.6293480000D+04  0.1969788147D-02
      0.9490440000D+03  0.1496128592D-01
      0.2187760000D+03  0.7350053084D-01
      0.6369160000D+02  0.2489367658D+00
      0.1882820000D+02  0.6024594331D+00
      0.2720230000D+01  0.2562017589D+00
 SP   3 1.00       0.000000000000
      0.3063310000D+02  0.1119060795D+00  0.3831191864D-01
      0.7026140000D+01  0.9216666549D+00  0.2374031155D+00
      0.2112050000D+01 -0.2569191826D-02  0.8175923978D+00
 SP   1 1.00       0.000000000000
      0.6840090000D+00  0.1000000000D+01  0.1000000000D+01
 SP   1 1.00       0.000000000000
      0.2008780000D+00  0.1000000000D+01  0.1000000000D+01
 D   1 1.00       0.000000000000
      0.9130000000D+00  0.1000000000D+01
 ****
      3 0
 S   3 1.00       0.000000000000
      0.3386500000D+02  0.2549381454D-01
      0.5094790000D+01  0.1903731086D+00
      0.1158790000D+01  0.8521614860D+00
 S   1 1.00       0.000000000000
      0.3258400000D+00  0.1000000000D+01
 S   1 1.00       0.000000000000
      0.1027410000D+00  0.1000000000D+01
 P   1 1.00       0.000000000000
      0.7500000000D+00  0.1000000000D+01
 ****
      4 0
 S   3 1.00       0.000000000000
      0.3386500000D+02  0.2549381454D-01
      0.5094790000D+01  0.1903731086D+00
      0.1158790000D+01  0.8521614860D+00
 S   1 1.00       0.000000000000
      0.3258400000D+00  0.1000000000D+01
 S   1 1.00       0.000000000000
      0.1027410000D+00  0.1000000000D+01
 P   1 1.00       0.000000000000
      0.7500000000D+00  0.1000000000D+01
 ****
      5 0
 S   3 1.00       0.000000000000
      0.3386500000D+02  0.2549381454D-01
      0.5094790000D+01  0.1903731086D+00
      0.1158790000D+01  0.8521614860D+00
 S   1 1.00       0.000000000000
      0.3258400000D+00  0.1000000000D+01
 S   1 1.00       0.000000000000
      0.1027410000D+00  0.1000000000D+01
 P   1 1.00       0.000000000000
      0.7500000000D+00  0.1000000000D+01
 ****
      6 0
 S   3 1.00       0.000000000000
      0.3386500000D+02  0.2549381454D-01
      0.5094790000D+01  0.1903731086D+00
      0.1158790000D+01  0.8521614860D+00
 S   1 1.00       0.000000000000
      0.3258400000D+00  0.1000000000D+01
 S   1 1.00       0.000000000000
      0.1027410000D+00  0.1000000000D+01
 P   1 1.00       0.000000000000
      0.7500000000D+00  0.1000000000D+01
 ****
      7 0
 S   3 1.00       0.000000000000
      0.3386500000D+02  0.2549381454D-01
      0.5094790000D+01  0.1903731086D+00
      0.1158790000D+01  0.8521614860D+00
 S   1 1.00       0.000000000000
      0.3258400000D+00  0.1000000000D+01
 S   1 1.00       0.000000000000
      0.1027410000D+00  0.1000000000D+01
 P   1 1.00       0.000000000000
      0.7500000000D+00  0.1000000000D+01
 ****

 There are    66 symmetry adapted basis functions of A   symmetry.
 Integral buffers will be    131072 words long.
 Raffenetti 2 integral format.
 Two-electron integral symmetry is turned on.
    66 basis functions,   104 primitive gaussians,    68 cartesian basis functions
     9 alpha electrons        9 beta electrons
       nuclear repulsion energy        42.1741062611 Hartrees.
 NAtoms=    7 NActive=    7 NUniq=    7 SFac= 1.00D+00 NAtFMM=   50 NAOKFM=F Big=F
 One-electron integrals computed using PRISM.
 NBasis=    66 RedAO= T  NBF=    66
 NBsUse=    66 1.00D-06 NBFU=    66
 Harris functional with IExCor=  402 diagonalized for initial guess.
 ExpMin= 1.03D-01 ExpMax= 6.29D+03 ExpMxC= 9.49D+02 IAcc=1 IRadAn=         1 AccDes= 0.00D+00
 HarFok:  IExCor=  402 AccDes= 0.00D+00 IRadAn=         1 IDoV= 1
 ScaDFX=  1.000000  1.000000  1.000000  1.000000
 FoFCou: FMM=F IPFlag=           0 FMFlag=      100000 FMFlg1=           0
         NFxFlg=           0 DoJE=T BraDBF=F KetDBF=T FulRan=T
         Omega=  0.000000  0.000000  1.000000  0.000000  0.000000 ICntrl=     500 IOpCl=  0
         NMat0=    1 NMatS0=    1 NMatT0=    0 NMatD0=    1 NMtDS0=    0 NMtDT0=    0
         I1Cent=           4 NGrid=           0.
 Petite list used in FoFCou.
 Initial guess orbital symmetries:
       Occupied  (A) (A) (A) (A) (A) (A) (A) (A) (A)
       Virtual   (A) (A) (A) (A) (A) (A) (A) (A) (A) (A) (A) (A)
                 (A) (A) (A) (A) (A) (A) (A) (A) (A) (A) (A) (A)
                 (A) (A) (A) (A) (A) (A) (A) (A) (A) (A) (A) (A)
                 (A) (A) (A) (A) (A) (A) (A) (A) (A) (A) (A) (A)
                 (A) (A) (A) (A) (A) (A) (A) (A) (A)
 The electronic state of the initial guess is 1-A.
 Requested convergence on RMS density matrix=1.00D-08 within 128 cycles.
 Requested convergence on MAX density matrix=1.00D-06.
 Requested convergence on             energy=1.00D-06.
 No special actions if energy rises.
 Keep R1 ints in memory in canonical form, NReq=3732597.
 Integral accuracy reduced to 1.0D-05 until final iterations.
 Initial convergence to 1.0D-05 achieved.  Increase integral accuracy.
 SCF Done:  E(RB3LYP) =  -95.8803925257     A.U. after   11 cycles
             Convg  =    0.6349D-08             -V/T =  2.0037

 **********************************************************************

            Population analysis using the SCF density.

 **********************************************************************

 Orbital symmetries:
       Occupied  (A) (A) (A) (A) (A) (A) (A) (A) (A)
       Virtual   (A) (A) (A) (A) (A) (A) (A) (A) (A) (A) (A) (A)
                 (A) (A) (A) (A) (A) (A) (A) (A) (A) (A) (A) (A)
                 (A) (A) (A) (A) (A) (A) (A) (A) (A) (A) (A) (A)
                 (A) (A) (A) (A) (A) (A) (A) (A) (A) (A) (A) (A)
                 (A) (A) (A) (A) (A) (A) (A) (A) (A)
 The electronic state is 1-A.
 Alpha  occ. eigenvalues --  -14.27377 -10.18520  -0.87129  -0.66692  -0.47193
 Alpha  occ. eigenvalues --   -0.45301  -0.41038  -0.36185  -0.22215
 Alpha virt. eigenvalues --    0.04618   0.07435   0.09765   0.12066   0.14522
 Alpha virt. eigenvalues --    0.21961   0.29935   0.32801   0.39832   0.42620
 Alpha virt. eigenvalues --    0.46463   0.54164   0.58005   0.58748   0.64346
 Alpha virt. eigenvalues --    0.72579   0.72922   0.73809   0.98734   1.07171
 Alpha virt. eigenvalues --    1.11020   1.31711   1.36260   1.46517   1.47485
 Alpha virt. eigenvalues --    1.49291   1.57785   1.64798   1.68573   1.73524
 Alpha virt. eigenvalues --    1.75400   1.83759   1.94290   2.02072   2.16274
 Alpha virt. eigenvalues --    2.20264   2.28114   2.33781   2.35037   2.41945
 Alpha virt. eigenvalues --    2.42894   2.46606   2.53551   2.63264   2.72992
 Alpha virt. eigenvalues --    2.73313   2.86546   2.95717   3.20063   3.44219
 Alpha virt. eigenvalues --    3.75155   3.80649   3.95562   4.64338   4.96420
 Alpha virt. eigenvalues --   23.88264  35.60314
     Molecular Orbital Coefficients:
                           1         2         3         4         5
                           O         O         O         O         O
     Eigenvalues --   -14.27377 -10.18520  -0.87129  -0.66692  -0.47193
   1 1   C  1S          0.00002   0.56303  -0.05404  -0.09366   0.00197
   2        2S         -0.00003   0.46328  -0.08328  -0.14565   0.00309
   3        2PX        -0.00045  -0.00077  -0.04355   0.03160  -0.01442
   4        2PY         0.00000  -0.00005   0.00079   0.00251   0.11951
   5        2PZ        -0.00006  -0.00008  -0.00160  -0.00399  -0.00669
   6        3S          0.00021   0.01794   0.21913   0.39330  -0.00835
   7        3PX         0.00120   0.00243  -0.07392   0.03695  -0.02071
   8        3PY        -0.00001   0.00028   0.00051   0.00298   0.17659
   9        3PZ         0.00016   0.00008  -0.00240  -0.00698  -0.01024
  10        4S          0.00553  -0.00363   0.06895   0.22893  -0.00629
  11        4PX        -0.00177  -0.00038  -0.00428   0.02541  -0.01253
  12        4PY         0.00008  -0.00001  -0.00007   0.00161   0.11752
  13        4PZ        -0.00044  -0.00010   0.00239   0.00654  -0.00443
  14        5D 0        0.00044   0.00033  -0.00957   0.00126  -0.00086
  15        5D+1       -0.00016  -0.00010   0.00060   0.00117   0.00097
  16        5D-1        0.00003  -0.00003  -0.00010  -0.00013  -0.01060
  17        5D+2       -0.00071  -0.00064   0.01512  -0.00407   0.00083
  18        5D-2       -0.00002  -0.00005  -0.00006  -0.00045  -0.00854
  19 2   N  1S          0.55737  -0.00003  -0.10380   0.03917  -0.00108
  20        2S          0.46574  -0.00006  -0.16304   0.06190  -0.00175
  21        2PX         0.00033   0.00031   0.00977   0.09104   0.01270
  22        2PY         0.00003   0.00001   0.00091   0.00086   0.18404
  23        2PZ         0.00114   0.00002   0.03344  -0.02799  -0.00772
  24        3S          0.01538   0.00051   0.44628  -0.17298   0.00560
  25        3PX        -0.00092  -0.00043   0.02004   0.13361   0.01832
  26        3PY        -0.00002  -0.00003   0.00146   0.00109   0.26868
  27        3PZ         0.00085   0.00001   0.05129  -0.04080  -0.01099
  28        4S         -0.00601  -0.00076   0.29972  -0.12651   0.00298
  29        4PX        -0.00276  -0.00077   0.01731   0.06410   0.01057
  30        4PY        -0.00002   0.00001   0.00082   0.00017   0.16849
  31        4PZ         0.00032  -0.00001   0.02179  -0.01847  -0.00817
  32        5D 0       -0.00064   0.00022  -0.00790  -0.00129  -0.00109
  33        5D+1       -0.00064  -0.00011  -0.00323   0.00903   0.00093
  34        5D-1       -0.00004  -0.00001  -0.00019   0.00022   0.01765
  35        5D+2       -0.00006  -0.00041   0.00447   0.00839   0.00001
  36        5D-2        0.00002  -0.00003   0.00014   0.00020  -0.00312
  37 3   H  1S         -0.00020  -0.00008   0.08302  -0.07588  -0.12035
  38        2S         -0.00216  -0.00004   0.07637  -0.08478  -0.15541
  39        3S          0.00053  -0.00005   0.00572  -0.01670  -0.07190
  40        4PX        -0.00086   0.00007   0.00996  -0.00289  -0.01260
  41        4PY        -0.00152  -0.00010   0.01400  -0.01245  -0.00431
  42        4PZ         0.00082   0.00006  -0.00514   0.00353   0.00701
  43 4   H  1S          0.00002   0.00011   0.02709   0.08439   0.06988
  44        2S         -0.00136  -0.00339   0.03518   0.10195   0.08053
  45        3S         -0.00008   0.00155   0.00042   0.01417   0.03214
  46        4PX         0.00011   0.00071  -0.00422  -0.00392  -0.00395
  47        4PY         0.00033   0.00190  -0.00605  -0.01306  -0.00181
  48        4PZ        -0.00016  -0.00110   0.00343   0.00713   0.00459
  49 5   H  1S          0.00001   0.00014   0.02671   0.07812  -0.00613
  50        2S         -0.00127  -0.00318   0.03293   0.09104  -0.00901
  51        3S         -0.00002   0.00153  -0.00053   0.00892  -0.00408
  52        4PX         0.00024   0.00054  -0.00349  -0.00285  -0.00039
  53        4PY         0.00000   0.00009  -0.00028  -0.00058   0.00597
  54        4PZ         0.00041   0.00213  -0.00726  -0.01415   0.00050
  55 6   H  1S          0.00002   0.00014   0.02505   0.08292  -0.07689
  56        2S         -0.00136  -0.00322   0.03303   0.10111  -0.09105
  57        3S          0.00000   0.00148   0.00012   0.01410  -0.03453
  58        4PX         0.00023   0.00082  -0.00465  -0.00506   0.00371
  59        4PY        -0.00035  -0.00181   0.00556   0.01300  -0.00321
  60        4PZ        -0.00013  -0.00095   0.00276   0.00631  -0.00577
  61 7   H  1S         -0.00016  -0.00008   0.08227  -0.07315   0.11101
  62        2S         -0.00203  -0.00003   0.07629  -0.08174   0.14580
  63        3S          0.00050  -0.00009   0.00577  -0.01615   0.06692
  64        4PX        -0.00079   0.00008   0.00987  -0.00225   0.01347
  65        4PY         0.00151   0.00010  -0.01445   0.01250  -0.00352
  66        4PZ         0.00072   0.00006  -0.00456   0.00280  -0.00687
                           6         7         8         9        10
                           O         O         O         O         V
     Eigenvalues --    -0.45301  -0.41038  -0.36185  -0.22215   0.04618
   1 1   C  1S          0.00699  -0.00241   0.00036  -0.00666  -0.02486
   2        2S          0.01082  -0.00382   0.00060  -0.01055  -0.03832
   3        2PX        -0.16278  -0.07357   0.00185  -0.02888   0.07135
   4        2PY        -0.01001   0.00545   0.17177  -0.00057   0.00632
   5        2PZ        -0.06817   0.18522  -0.00647  -0.06454   0.02051
   6        3S         -0.02149   0.01212  -0.00202   0.03389   0.05258
   7        3PX        -0.23965  -0.10504   0.00289  -0.03923   0.09689
   8        3PY        -0.01471   0.00772   0.24521  -0.00158   0.00781
   9        3PZ        -0.09987   0.26849  -0.00909  -0.08969   0.02149
  10        4S         -0.04431  -0.00032  -0.00169  -0.03872   1.16975
  11        4PX        -0.12938  -0.06545   0.00262  -0.00204   0.26753
  12        4PY        -0.01038   0.00566   0.16814   0.00180   0.04180
  13        4PZ        -0.04641   0.17207  -0.00682  -0.05798   0.07817
  14        5D 0       -0.01735   0.01151   0.00126  -0.01370  -0.00593
  15        5D+1        0.00665   0.00622  -0.00002  -0.03169  -0.00514
  16        5D-1       -0.00031   0.00173  -0.01664  -0.00119   0.00005
  17        5D+2        0.02136   0.01605  -0.00223  -0.00052   0.00686
  18        5D-2        0.00162   0.00147   0.02444  -0.00103  -0.00119
  19 2   N  1S         -0.02015   0.00544   0.00084   0.02805  -0.03989
  20        2S         -0.03244   0.00874   0.00136   0.04538  -0.06345
  21        2PX         0.17577   0.07031  -0.00655   0.04958  -0.05447
  22        2PY        -0.01725  -0.00209  -0.12583   0.00461   0.00496
  23        2PZ        -0.05605   0.06910   0.00161   0.25480   0.04319
  24        3S          0.09894  -0.02613  -0.00405  -0.13561   0.15659
  25        3PX         0.25545   0.10015  -0.00926   0.06531  -0.06093
  26        3PY        -0.02521  -0.00289  -0.17902   0.00643   0.00658
  27        3PZ        -0.07869   0.10462   0.00194   0.35181   0.06968
  28        4S          0.09864  -0.01135  -0.00627  -0.17361   0.86932
  29        4PX         0.15874   0.07162  -0.00676   0.11495  -0.30211
  30        4PY        -0.01621  -0.00212  -0.13041   0.00816   0.01231
  31        4PZ        -0.06155   0.09045   0.00122   0.45857   0.13831
  32        5D 0       -0.00616   0.00582   0.00041   0.01300  -0.00043
  33        5D+1        0.00954   0.01611  -0.00111  -0.00016  -0.00408
  34        5D-1       -0.00156   0.00007  -0.01355   0.00044  -0.00001
  35        5D+2        0.01034   0.00295   0.00032   0.00122   0.00082
  36        5D-2        0.00053   0.00059   0.02035   0.00025   0.00077
  37 3   H  1S         -0.06372  -0.01722   0.09874   0.03276  -0.01685
  38        2S         -0.08226  -0.03527   0.14474   0.03738  -0.03221
  39        3S         -0.03593  -0.01398   0.09893   0.03166  -0.68308
  40        4PX         0.00660   0.00420   0.00769   0.00613   0.00675
  41        4PY        -0.01252  -0.00325   0.00210   0.00726   0.00597
  42        4PZ        -0.00046   0.00679  -0.00508   0.02244  -0.00293
  43 4   H  1S         -0.03849  -0.08937   0.13265   0.03728  -0.00101
  44        2S         -0.04774  -0.12088   0.19115   0.08311  -0.06597
  45        3S         -0.01284  -0.06153   0.11236   0.03613  -0.41839
  46        4PX        -0.00633   0.00094  -0.00590  -0.00208   0.00723
  47        4PY         0.00288   0.01112  -0.00402  -0.00473  -0.00261
  48        4PZ        -0.00673   0.00493   0.00911  -0.00258   0.00147
  49 5   H  1S         -0.09777   0.13085   0.00158  -0.08799  -0.00527
  50        2S         -0.12942   0.17438   0.00205  -0.15957  -0.04444
  51        3S         -0.05955   0.10112   0.00068  -0.11574  -0.60398
  52        4PX        -0.00330  -0.00918   0.00003  -0.00248   0.00586
  53        4PY         0.00020  -0.00059   0.01107   0.00036  -0.00056
  54        4PZ         0.01052  -0.00767  -0.00061   0.00396  -0.00727
  55 6   H  1S         -0.03623  -0.09366  -0.12658   0.03521   0.00191
  56        2S         -0.04624  -0.12668  -0.18454   0.08070  -0.05187
  57        3S         -0.01248  -0.06337  -0.10944   0.03860  -0.36994
  58        4PX        -0.00605   0.00201   0.00702  -0.00274   0.00814
  59        4PY        -0.00380  -0.01122  -0.00307   0.00379   0.00251
  60        4PZ        -0.00645   0.00511  -0.00862  -0.00350   0.00159
  61 7   H  1S         -0.08248  -0.02123  -0.09611   0.03147  -0.02012
  62        2S         -0.10826  -0.04050  -0.14099   0.03600  -0.03416
  63        3S         -0.04935  -0.01725  -0.09734   0.03031  -0.72216
  64        4PX         0.00452   0.00382  -0.00819   0.00604   0.00774
  65        4PY         0.01298   0.00357   0.00221  -0.00634  -0.00697
  66        4PZ         0.00009   0.00691   0.00458   0.02259  -0.00328
                          11        12        13        14        15
                           V         V         V         V         V
     Eigenvalues --     0.07435   0.09765   0.12066   0.14522   0.21961
   1 1   C  1S         -0.05411   0.00119   0.00316   0.00028   0.01823
   2        2S         -0.08518   0.00183   0.00491   0.00037   0.02839
   3        2PX         0.02215   0.00347   0.01947   0.00062   0.11964
   4        2PY        -0.00859  -0.12228  -0.00156  -0.12717   0.00153
   5        2PZ        -0.01318   0.00286  -0.17674   0.00024   0.01770
   6        3S          0.18587  -0.00272  -0.00377   0.00203  -0.02896
   7        3PX        -0.00747   0.00470   0.02372   0.00153   0.12627
   8        3PY        -0.00942  -0.12020  -0.00209  -0.12977   0.00350
   9        3PZ        -0.01451   0.00253  -0.17443   0.00010   0.01869
  10        4S          1.63973  -0.04953  -0.14363  -0.05183  -1.09993
  11        4PX         0.16454   0.02208   0.17548   0.01187   1.97352
  12        4PY        -0.04948  -0.69385  -0.00785  -0.97045   0.02337
  13        4PZ        -0.11078   0.01605  -1.11056   0.01022   0.24731
  14        5D 0        0.00021   0.00092   0.02214   0.00213  -0.02218
  15        5D+1        0.00421  -0.00054   0.01874   0.00023   0.00913
  16        5D-1       -0.00107  -0.01339   0.00282  -0.02050   0.00040
  17        5D+2       -0.00190  -0.00120   0.01371  -0.00112   0.03821
  18        5D-2        0.00156   0.02761   0.00116   0.00603   0.00116
  19 2   N  1S          0.03254  -0.00213  -0.00688   0.00003  -0.03150
  20        2S          0.05166  -0.00332  -0.01093   0.00014  -0.05031
  21        2PX         0.00475  -0.00440   0.00719  -0.00445   0.17033
  22        2PY        -0.00360  -0.11307  -0.00061   0.12641   0.00070
  23        2PZ        -0.03830   0.00659   0.02343  -0.00004  -0.00975
  24        3S         -0.11733   0.00572   0.01873  -0.00296   0.10542
  25        3PX        -0.00387  -0.00512   0.00619  -0.00640   0.19962
  26        3PY        -0.00523  -0.13198  -0.00098   0.13646   0.00131
  27        3PZ        -0.06158   0.00878   0.01449   0.00059  -0.00302
  28        4S         -0.78764   0.07441   0.27359   0.02470   1.35051
  29        4PX         0.00430  -0.01562   0.00194  -0.00753   1.16630
  30        4PY        -0.00537  -0.42282   0.00004   0.66099   0.00149
  31        4PZ        -0.12060   0.02677   0.22013  -0.00210   0.01588
  32        5D 0       -0.00359   0.00022   0.00132   0.00006  -0.00120
  33        5D+1       -0.00011   0.00005  -0.01575  -0.00040   0.00400
  34        5D-1        0.00019  -0.00224   0.00052  -0.00061  -0.00065
  35        5D+2        0.00436  -0.00052   0.00222   0.00006  -0.01105
  36        5D-2       -0.00166  -0.02108  -0.00030  -0.00410   0.00106
  37 3   H  1S          0.02135  -0.03609   0.00397   0.00845  -0.00795
  38        2S          0.02880  -0.03846  -0.04037   0.02883  -0.05745
  39        3S          0.52514  -1.10577  -0.12253   1.14249   0.56104
  40        4PX        -0.01132   0.01301  -0.00354  -0.00375  -0.00982
  41        4PY         0.00049   0.01235  -0.00039  -0.01030  -0.01494
  42        4PZ        -0.00082  -0.00616   0.00721   0.00930   0.00632
  43 4   H  1S         -0.01395   0.02553  -0.01302   0.01624  -0.02757
  44        2S         -0.00014   0.00866   0.00783   0.04710  -0.19372
  45        3S         -0.82007   1.13137  -1.00349   1.37387  -0.02481
  46        4PX        -0.00882   0.01108  -0.00527   0.00539   0.01067
  47        4PY        -0.00743   0.01804  -0.02026   0.01465  -0.00441
  48        4PZ         0.00523  -0.01060   0.00370  -0.01473   0.00567
  49 5   H  1S         -0.00956  -0.00043   0.02574  -0.00081  -0.02145
  50        2S          0.03352  -0.00192  -0.02867  -0.00382  -0.18653
  51        3S         -0.65142   0.02701   2.03526   0.06657  -0.32711
  52        4PX        -0.00844   0.00036   0.01137   0.00017   0.01179
  53        4PY        -0.00075  -0.00103   0.00216  -0.01021   0.00064
  54        4PZ        -0.00884   0.00052   0.03493   0.00139  -0.00923
  55 6   H  1S         -0.01953  -0.02505  -0.01058  -0.01670  -0.01588
  56        2S         -0.01341  -0.01236   0.01282  -0.03729  -0.14045
  57        3S         -0.96111  -1.07198  -0.93914  -1.35113  -0.18313
  58        4PX        -0.01119  -0.01166  -0.00627  -0.00787   0.01221
  59        4PY         0.00892   0.01714   0.01913   0.01489   0.00947
  60        4PZ         0.00593   0.00942   0.00184   0.01350   0.00717
  61 7   H  1S          0.02657   0.03451   0.00511  -0.00983  -0.01040
  62        2S          0.02991   0.03551  -0.03787  -0.03083  -0.06566
  63        3S          0.58836   0.99118  -0.09171  -1.20446   0.51845
  64        4PX        -0.01303  -0.01129  -0.00353   0.00389  -0.00778
  65        4PY         0.00045   0.01316   0.00078  -0.01086   0.01464
  66        4PZ        -0.00007   0.00524   0.00801  -0.00892   0.00485
                          16        17        18        19        20
                           V         V         V         V         V
     Eigenvalues --     0.29935   0.32801   0.39832   0.42620   0.46463
   1 1   C  1S          0.00082   0.00435   0.00358  -0.04412  -0.02861
   2        2S          0.00134   0.00885   0.00697  -0.08342  -0.05048
   3        2PX        -0.00383   0.02088   0.02395  -0.22957  -0.11540
   4        2PY         0.00478   0.00484  -0.02390  -0.00950  -0.00820
   5        2PZ         0.00061   0.02555   0.00423   0.01958  -0.05689
   6        3S         -0.00550  -0.07219  -0.06528   0.49852   0.17535
   7        3PX        -0.01106   0.07581   0.07520  -0.75378  -0.23635
   8        3PY         0.08302   0.01411  -0.06014  -0.03580  -0.02430
   9        3PZ        -0.00383   0.10410   0.01242   0.05426  -0.19313
  10        4S          0.05586   0.07201   0.23335   0.20765   0.26314
  11        4PX        -0.15094  -0.22339  -0.23532   0.98152   0.31362
  12        4PY         1.11391  -0.01573   1.69064   0.19105   0.11753
  13        4PZ        -0.12309   1.60633   0.09278  -0.23500   0.96363
  14        5D 0       -0.00080   0.00603  -0.00255   0.00111   0.02219
  15        5D+1       -0.00194   0.03233   0.00083  -0.02033   0.06007
  16        5D-1       -0.00623   0.00301   0.00461   0.00011   0.00261
  17        5D+2       -0.00189  -0.00504  -0.00498  -0.01986  -0.03690
  18        5D-2       -0.00198  -0.00449   0.07394   0.00691   0.00143
  19 2   N  1S          0.00063  -0.00970  -0.00116   0.01509   0.04630
  20        2S          0.00077  -0.01595  -0.00221   0.02415   0.07960
  21        2PX        -0.00011  -0.01956   0.00514  -0.10058  -0.00088
  22        2PY         0.03375   0.00238  -0.07549  -0.00444  -0.00130
  23        2PZ         0.00081  -0.05926  -0.00483  -0.00338  -0.07370
  24        3S          0.00331   0.07623   0.02135  -0.11439  -0.22614
  25        3PX         0.00014  -0.03513   0.00120  -0.07917   0.07037
  26        3PY         0.07866   0.00776  -0.13895  -0.00913  -0.00078
  27        3PZ        -0.00031  -0.08200  -0.00913   0.02232  -0.18464
  28        4S         -0.09772  -0.21105  -0.21784   0.97232  -1.25208
  29        4PX        -0.07351   0.19173  -0.01302  -0.94313   0.84461
  30        4PY        -0.02557   0.08057  -1.41221  -0.12334  -0.03538
  31        4PZ         0.02823  -0.51322  -0.03378   0.36176  -0.74163
  32        5D 0        0.00184  -0.00230   0.00387  -0.03264  -0.03392
  33        5D+1       -0.00094   0.02632   0.00420  -0.00530   0.00061
  34        5D-1       -0.00790  -0.00085   0.00438  -0.00027  -0.00122
  35        5D+2        0.00016  -0.00371  -0.00575   0.05139   0.01585
  36        5D-2        0.03531   0.00285   0.00426   0.00070   0.00105
  37 3   H  1S          0.08095  -0.02059  -0.07484  -0.01467   0.07916
  38        2S          0.35686   0.25758  -1.26303  -0.82407   1.62258
  39        3S         -0.14022  -0.10347   0.90613   0.15843  -0.47172
  40        4PX        -0.03269   0.03305  -0.03840  -0.09483   0.00671
  41        4PY         0.00117   0.01944  -0.02998  -0.00605   0.03419
  42        4PZ         0.00499  -0.01127   0.00228  -0.00443  -0.02725
  43 4   H  1S         -0.08310   0.04037   0.01323   0.00279  -0.03064
  44        2S         -1.03805   0.68641  -0.63683  -0.17538  -0.22650
  45        3S          0.40893  -0.14122  -0.16311  -0.18635   0.28795
  46        4PX         0.01254  -0.01939   0.07395  -0.01042  -0.02600
  47        4PY         0.04494  -0.00787   0.03559   0.00470   0.00523
  48        4PZ        -0.01646   0.03643   0.00119   0.00724   0.00412
  49 5   H  1S          0.00669  -0.08561  -0.00399  -0.04701   0.02633
  50        2S          0.08708  -1.37222  -0.14597  -0.28141  -0.40152
  51        3S         -0.00737   0.27477  -0.00030   0.26331  -0.40005
  52        4PX        -0.00401   0.03166   0.00609  -0.04849   0.04739
  53        4PY         0.01942   0.00389   0.02575   0.00149   0.00238
  54        4PZ        -0.00313   0.05922   0.00643  -0.01014   0.02481
  55 6   H  1S          0.08655   0.04940  -0.00590   0.00045  -0.02991
  56        2S          1.03096   0.69134   0.67175  -0.06859  -0.17459
  57        3S         -0.40549  -0.17258   0.18210  -0.13893   0.33525
  58        4PX        -0.01457  -0.01017  -0.06612  -0.02076  -0.02574
  59        4PY         0.04092   0.00683   0.02848  -0.00096  -0.00487
  60        4PZ         0.01005   0.03718  -0.00031   0.00543   0.00587
  61 7   H  1S         -0.08015  -0.03862   0.07187  -0.00580   0.07468
  62        2S         -0.40053   0.03741   1.38952  -0.59171   1.60640
  63        3S          0.12718   0.04922  -0.98130   0.01368  -0.49287
  64        4PX         0.03289   0.02829   0.06366  -0.08188   0.01077
  65        4PY         0.00433  -0.01476  -0.02959   0.00105  -0.03399
  66        4PZ        -0.00447  -0.00858  -0.00167  -0.00488  -0.02527
                          21        22        23        24        25
                           V         V         V         V         V
     Eigenvalues --     0.54164   0.58005   0.58748   0.64346   0.72579
   1 1   C  1S         -0.07071   0.00620  -0.00472  -0.01626   0.04097
   2        2S         -0.12619   0.01141  -0.00890  -0.02918   0.08868
   3        2PX         0.09484   0.00694   0.00849   0.00066  -0.15334
   4        2PY        -0.01356  -0.28155   0.01408   0.00667   0.00843
   5        2PZ         0.01701  -0.01396  -0.27397  -0.01743   0.01246
   6        3S          0.47547  -0.05647   0.05018   0.21956  -0.95199
   7        3PX         0.40499   0.01193   0.00774   0.11885  -0.12684
   8        3PY        -0.03172  -0.92449   0.04790   0.01959   0.09275
   9        3PZ         0.08802  -0.04854  -0.89800  -0.19110   0.11191
  10        4S          1.43936  -0.04496   0.08648  -1.15609   1.73494
  11        4PX        -0.46960  -0.03682  -0.05490   0.21654   1.37366
  12        4PY         0.15330   1.81323  -0.04392  -0.08659   0.03325
  13        4PZ        -0.20607   0.10843   1.94308  -0.31561  -0.04215
  14        5D 0        0.00411   0.00541   0.04299   0.04272   0.06846
  15        5D+1       -0.02368   0.00662   0.04008   0.00820  -0.02017
  16        5D-1       -0.00471  -0.05047   0.01030  -0.00117   0.00725
  17        5D+2       -0.00780   0.00052   0.02121  -0.01789  -0.13604
  18        5D-2        0.00279   0.04114   0.00182   0.00164  -0.00144
  19 2   N  1S          0.01757  -0.00436  -0.01271  -0.01659  -0.00521
  20        2S          0.03037  -0.00763  -0.02281  -0.02775  -0.00750
  21        2PX        -0.07494   0.00292  -0.04790  -0.06933  -0.20600
  22        2PY         0.01605   0.06779  -0.00341  -0.00355   0.07993
  23        2PZ         0.03166  -0.00203   0.07062  -0.22977   0.03687
  24        3S         -0.12834   0.03410   0.12879   0.02653   0.04794
  25        3PX        -0.12395  -0.00205  -0.07377  -0.25515  -0.61118
  26        3PY         0.03700   0.13477  -0.00482  -0.01276   0.23652
  27        3PZ         0.09586  -0.00960   0.18161  -0.77076   0.07434
  28        4S         -0.49676   0.01898  -0.01168   1.04212  -0.24190
  29        4PX        -0.43586   0.03601  -0.10080   0.33394   1.68255
  30        4PY        -0.02774  -0.25595  -0.02049   0.04646  -0.55995
  31        4PZ        -0.06779   0.00782  -0.36899   1.50758  -0.32798
  32        5D 0        0.00704   0.00275   0.00518  -0.00751   0.01514
  33        5D+1        0.00787  -0.00140  -0.00727  -0.03047   0.02044
  34        5D-1       -0.00169  -0.01646   0.00164  -0.00007  -0.00351
  35        5D+2        0.00860  -0.00067   0.01681   0.01174   0.00469
  36        5D-2        0.00276   0.00123   0.00002  -0.00154   0.01753
  37 3   H  1S         -0.00239   0.03161  -0.03723  -0.00751  -0.01190
  38        2S         -0.05585   0.14364  -0.32577  -0.49672   0.19341
  39        3S         -0.21386  -0.17298   0.21697   0.06444   0.22472
  40        4PX         0.01890  -0.04502   0.02285  -0.04715   0.04567
  41        4PY        -0.00427  -0.00041   0.04097  -0.01900   0.04488
  42        4PZ         0.00982   0.01227  -0.00150   0.01612  -0.01707
  43 4   H  1S         -0.07899   0.07706  -0.04708  -0.02039   0.01102
  44        2S         -1.11392   0.44438  -0.24388  -0.10213  -0.38312
  45        3S          0.23199  -1.53639   0.96540   0.34046  -0.62074
  46        4PX         0.01017   0.03606  -0.02686   0.02503   0.00851
  47        4PY        -0.02403   0.02908  -0.03528  -0.03185   0.08136
  48        4PZ         0.00992  -0.03613   0.00004  -0.01774  -0.03734
  49 5   H  1S         -0.09439   0.01262   0.07212  -0.00852   0.01641
  50        2S         -1.12223   0.09880   0.27819   0.35687  -0.36673
  51        3S          0.60346  -0.19443  -1.75099  -0.16311  -0.46442
  52        4PX         0.00629   0.00344   0.04107  -0.11179   0.01691
  53        4PY        -0.00184  -0.03314   0.00811  -0.00213   0.01846
  54        4PZ        -0.03264   0.00981   0.05106  -0.01806   0.07973
  55 6   H  1S         -0.08999  -0.07145  -0.03539  -0.01719  -0.00035
  56        2S         -1.11569  -0.31737  -0.14459  -0.10430  -0.28894
  57        3S          0.48328   1.58877   0.72989   0.23083  -0.72555
  58        4PX        -0.00148  -0.04036  -0.02723   0.02169  -0.04268
  59        4PY         0.03222   0.02764   0.03048   0.03303  -0.08319
  60        4PZ         0.01312   0.03043  -0.00624  -0.02334  -0.05365
  61 7   H  1S         -0.02014  -0.03970  -0.03172  -0.00574  -0.03679
  62        2S         -0.17162  -0.22011  -0.26201  -0.50787   0.27126
  63        3S         -0.07078   0.26430   0.16371   0.07577   0.87404
  64        4PX         0.03185   0.04880   0.01808  -0.05130   0.09810
  65        4PY         0.00298  -0.00917  -0.04138   0.02029  -0.09163
  66        4PZ         0.00374  -0.01050   0.00105   0.01429  -0.04204
                          26        27        28        29        30
                           V         V         V         V         V
     Eigenvalues --     0.72922   0.73809   0.98734   1.07171   1.11020
   1 1   C  1S          0.04442   0.06536  -0.02357  -0.01096  -0.00253
   2        2S          0.08637   0.13241  -0.04664  -0.02147  -0.00503
   3        2PX         0.03154  -0.03403  -0.06153  -0.03153  -0.00555
   4        2PY         0.02061  -0.01835  -0.00163   0.00055   0.00027
   5        2PZ        -0.02200  -0.01896  -0.03519  -0.00288  -0.00217
   6        3S         -0.79515  -1.31346   0.58140   0.38054   0.07994
   7        3PX         0.02205   0.00504   0.08388   0.21021   0.01642
   8        3PY         0.19567  -0.15328  -0.00616  -0.00471  -0.05573
   9        3PZ        -0.12022  -0.07102  -0.03704   0.00049   0.00190
  10        4S          3.58306   4.78401  -3.49965  -3.17464  -0.57651
  11        4PX        -0.57588   0.03075   1.00514   1.03197   0.19072
  12        4PY         0.02291   0.00564   0.01230   0.02216  -0.53294
  13        4PZ        -0.00782  -0.06749   0.29033  -0.10303  -0.00914
  14        5D 0       -0.00379   0.04177   0.16084   0.00312  -0.01866
  15        5D+1       -0.02087  -0.03634  -0.32388   0.24217  -0.01769
  16        5D-1        0.01171  -0.01401  -0.01965  -0.01319   0.26846
  17        5D+2        0.02197  -0.03422  -0.01106  -0.21313  -0.04556
  18        5D-2        0.00546  -0.00902  -0.02063  -0.03153   0.41108
  19 2   N  1S          0.02613   0.03042   0.05908   0.06863   0.00831
  20        2S          0.04692   0.05629   0.11793   0.14151   0.01713
  21        2PX         0.12647   0.03791  -0.03441  -0.00913  -0.00117
  22        2PY         0.18643  -0.16568   0.00688   0.00472  -0.00733
  23        2PZ        -0.04887  -0.02858  -0.00761  -0.01888  -0.00285
  24        3S         -0.27852  -0.35544  -1.08432  -1.34716  -0.17315
  25        3PX         0.36550   0.09944  -0.27736  -0.18145  -0.03217
  26        3PY         0.54946  -0.49864   0.03238   0.02990  -0.16266
  27        3PZ        -0.11416  -0.06298   0.19274   0.03565   0.01664
  28        4S         -0.10637  -0.05014   3.71725   4.30987   0.63901
  29        4PX        -1.79931  -1.20002   0.94273   0.81124   0.15097
  30        4PY        -1.29175   1.21614  -0.08368  -0.10907   0.93614
  31        4PZ         0.39977   0.27395   0.14234   0.50446   0.04698
  32        5D 0        0.00738   0.01458  -0.02679   0.05259   0.00524
  33        5D+1       -0.01738  -0.01092   0.05884  -0.12416   0.00099
  34        5D-1       -0.01142   0.00805  -0.00182   0.01057  -0.11121
  35        5D+2       -0.02558  -0.02747  -0.05338   0.01239  -0.00492
  36        5D-2        0.03974  -0.03608   0.00622   0.00679  -0.13219
  37 3   H  1S          0.03133  -0.02700   0.03899  -0.00706   0.00626
  38        2S         -0.38942  -0.15404  -0.58507  -0.83295   0.27472
  39        3S         -1.30164   0.32887  -0.03194  -0.08731   0.11537
  40        4PX        -0.08127   0.06530   0.02802  -0.11166   0.10384
  41        4PY        -0.14248  -0.02917  -0.32559  -0.00120   0.01182
  42        4PZ         0.08112   0.01264  -0.02107   0.29448   0.27680
  43 4   H  1S          0.01836  -0.00748   0.02736   0.00602   0.00378
  44        2S         -0.55944  -0.70669   0.46231   0.35546   0.22209
  45        3S         -0.11188  -0.63292   0.19379   0.11714   0.08690
  46        4PX         0.13476  -0.01112   0.05482  -0.16047   0.20439
  47        4PY         0.03728   0.07220  -0.12407   0.10445  -0.00813
  48        4PZ        -0.01252  -0.08484  -0.11081   0.08615   0.19703
  49 5   H  1S         -0.00452  -0.00318  -0.00494   0.01139   0.00152
  50        2S         -0.40179  -0.64219   0.47184   0.42690   0.09671
  51        3S         -0.36656  -0.59453   0.03516   0.11835   0.03233
  52        4PX        -0.00252  -0.00133  -0.20852   0.14257   0.00415
  53        4PY         0.03224  -0.02352  -0.02539  -0.01219   0.27846
  54        4PZ         0.06101   0.10768   0.04890  -0.06128  -0.01826
  55 6   H  1S         -0.00669   0.01693   0.02420   0.00681   0.00070
  56        2S         -0.41229  -0.81421   0.45483   0.36125  -0.07690
  57        3S         -0.31374  -0.44514   0.18440   0.09379  -0.06454
  58        4PX        -0.00823   0.12479   0.08448  -0.09467  -0.21731
  59        4PY        -0.03709  -0.06655   0.12839  -0.10451  -0.04101
  60        4PZ        -0.05667  -0.03826  -0.09452   0.12503  -0.17974
  61 7   H  1S         -0.02433   0.01388   0.04595   0.00269   0.00142
  62        2S         -0.19762  -0.40518  -0.53602  -0.74498  -0.49740
  63        3S          0.26150  -0.98673   0.02748  -0.03577  -0.10429
  64        4PX         0.04730  -0.04263   0.03187  -0.10965  -0.10837
  65        4PY         0.03688   0.13045   0.31300   0.00045   0.05984
  66        4PZ         0.00752   0.06661  -0.02937   0.32395  -0.24108
                          31        32        33        34        35
                           V         V         V         V         V
     Eigenvalues --     1.31711   1.36260   1.46517   1.47485   1.49291
   1 1   C  1S          0.00212  -0.00580   0.00036  -0.00146   0.00335
   2        2S          0.00474  -0.01185   0.00073  -0.00283   0.00677
   3        2PX         0.00023  -0.01046   0.00206  -0.01363   0.01325
   4        2PY        -0.00289  -0.00382  -0.00397   0.05778   0.00514
   5        2PZ         0.00454  -0.03471  -0.00495   0.00158  -0.04092
   6        3S         -0.06118   0.11286  -0.00500   0.00775  -0.04921
   7        3PX         0.01254  -0.06781   0.00377  -0.01198   0.06557
   8        3PY        -0.09110  -0.01059   0.00065   0.09430   0.01700
   9        3PZ         0.00314  -0.02517   0.00330  -0.00325  -0.07449
  10        4S          0.21736   0.33095  -0.03212   0.17195  -0.39632
  11        4PX        -0.12067  -0.08007   0.02567  -0.19337   0.15588
  12        4PY         0.65529   0.01248  -0.06833   1.03493   0.06560
  13        4PZ         0.09286  -1.07241  -0.10438   0.04036  -0.94933
  14        5D 0        0.03098  -0.32118  -0.05556   0.06091  -0.62945
  15        5D+1        0.01134   0.05837  -0.03813   0.07004  -0.45385
  16        5D-1       -0.18208  -0.03262   0.03177  -0.65195  -0.13583
  17        5D+2        0.05132  -0.19876  -0.02457   0.03487  -0.25764
  18        5D-2       -0.07567  -0.05561  -0.03205   0.58518   0.03576
  19 2   N  1S         -0.00169   0.00456  -0.00033   0.00089  -0.00034
  20        2S         -0.00364   0.01029  -0.00066   0.00138  -0.00001
  21        2PX         0.00014  -0.01846   0.00002  -0.00638  -0.00571
  22        2PY         0.04004   0.00073  -0.00078   0.01653  -0.00057
  23        2PZ         0.00526  -0.02829  -0.00287   0.00384  -0.03618
  24        3S          0.05581  -0.16179   0.00310   0.00416  -0.01569
  25        3PX         0.00257   0.02344  -0.00590  -0.00149  -0.06303
  26        3PY         0.19680   0.02264   0.00390  -0.03057  -0.01236
  27        3PZ         0.00061  -0.11735  -0.00297   0.00000  -0.03844
  28        4S         -0.33993   0.92469   0.00874  -0.14125  -0.00642
  29        4PX         0.04789  -1.12057   0.03921  -0.14744   0.50873
  30        4PY        -0.61768  -0.04707   0.02396  -0.23617  -0.01016
  31        4PZ        -0.11715   1.19620   0.02013   0.01742   0.09923
  32        5D 0        0.00995  -0.14769   0.00085  -0.00482   0.00897
  33        5D+1       -0.01421   0.14925   0.00413  -0.00113   0.05490
  34        5D-1       -0.13943  -0.02165   0.00090  -0.03646  -0.00349
  35        5D+2        0.01824  -0.11306  -0.00065   0.00170   0.00195
  36        5D-2       -0.15066   0.00167   0.00531  -0.13308  -0.00986
  37 3   H  1S         -0.07997  -0.02020   0.00285  -0.09219  -0.03977
  38        2S          0.03928  -0.85589   0.01279   0.03202   0.19996
  39        3S         -0.11161  -0.08302   0.00225   0.03920   0.07390
  40        4PX         0.36021   0.24374   0.00153  -0.10766  -0.14998
  41        4PY        -0.01161  -0.34641  -0.00138   0.00038   0.09856
  42        4PZ         0.35366  -0.23495  -0.00677   0.01663   0.03918
  43 4   H  1S         -0.02664   0.01935  -0.00111   0.24633   0.17508
  44        2S         -0.16577  -0.31885   0.00986  -1.18023  -0.76150
  45        3S         -0.20156  -0.09212  -0.00472   0.20431   0.15222
  46        4PX        -0.28260  -0.22464   0.05177   0.01996   0.06943
  47        4PY         0.08597   0.09246  -0.29724  -0.15749   0.05632
  48        4PZ        -0.06215  -0.01625  -0.47792  -0.10492   0.28325
  49 5   H  1S         -0.00121  -0.04934  -0.02219   0.01928  -0.30990
  50        2S         -0.09076   0.61422   0.12072  -0.11222   1.41675
  51        3S         -0.02755   0.17689  -0.00894   0.02212  -0.23301
  52        4PX        -0.03690   0.40029  -0.05007   0.06423  -0.17252
  53        4PY         0.02340   0.00605   0.61185  -0.17938  -0.07511
  54        4PZ         0.01171  -0.13157   0.00141  -0.02241   0.18714
  55 6   H  1S          0.01565   0.03230   0.02268  -0.28710   0.10780
  56        2S          0.19273  -0.34886  -0.12147   1.31010  -0.46943
  57        3S          0.20466  -0.04808   0.01127  -0.22408   0.07701
  58        4PX         0.32289  -0.14799  -0.01269   0.01711   0.08066
  59        4PY         0.13099  -0.08071  -0.27684  -0.15772  -0.00362
  60        4PZ         0.06589   0.00927   0.55111   0.06349   0.20958
  61 7   H  1S          0.07684  -0.01070  -0.00360   0.09689  -0.02774
  62        2S          0.20392  -0.79830   0.00244  -0.10066   0.19166
  63        3S          0.10258  -0.05180   0.01305  -0.07794   0.04830
  64        4PX        -0.42272   0.15220  -0.02320   0.16462  -0.10974
  65        4PY        -0.11579   0.31212  -0.00701   0.02874  -0.08421
  66        4PZ        -0.33697  -0.30534   0.00632  -0.03709   0.03534
                          36        37        38        39        40
                           V         V         V         V         V
     Eigenvalues --     1.57785   1.64798   1.68573   1.73524   1.75400
   1 1   C  1S          0.00957  -0.00444  -0.00335   0.02019  -0.00100
   2        2S          0.01472  -0.00794  -0.00546   0.04050  -0.00047
   3        2PX         0.21346  -0.06642  -0.02440   0.22323  -0.01292
   4        2PY         0.01022   0.04260   0.00213   0.01724  -0.02547
   5        2PZ         0.01200  -0.00551  -0.08579  -0.00025  -0.00867
   6        3S         -0.01866   0.02172   0.06563  -0.17239  -0.01576
   7        3PX        -0.14837  -0.00755   0.00984   0.32106   0.00841
   8        3PY         0.00111  -0.06588   0.00831  -0.04433  -0.19057
   9        3PZ        -0.01567   0.00138   0.10573  -0.03875   0.02131
  10        4S          0.42297   0.28861  -0.20068  -2.79890   0.01306
  11        4PX         1.12425  -0.36153   0.03157   1.21133  -0.04661
  12        4PY         0.25777   1.06904  -0.06059   0.13674  -0.13951
  13        4PZ        -0.07238  -0.02018  -1.03043   0.21369  -0.06390
  14        5D 0        0.29984  -0.03179   0.02753   0.04039  -0.01974
  15        5D+1       -0.05491   0.02875   0.52314  -0.00973   0.01723
  16        5D-1       -0.08685  -0.19322   0.04119   0.00463   0.06124
  17        5D+2       -0.59949   0.11396  -0.00641   0.02234   0.05139
  18        5D-2       -0.05146  -0.35875   0.00295  -0.02370   0.04811
  19 2   N  1S         -0.03404   0.00176   0.02335   0.03661   0.00250
  20        2S         -0.06590   0.00192   0.04723   0.08322   0.00481
  21        2PX         0.12154  -0.02879  -0.00166   0.05245  -0.00771
  22        2PY        -0.00280  -0.00480  -0.00150   0.00279   0.00366
  23        2PZ         0.01143  -0.00711   0.06294   0.06615   0.00104
  24        3S          0.38406   0.03870  -0.41451  -0.93099  -0.02997
  25        3PX         0.33251  -0.04776   0.00352  -0.14250  -0.02491
  26        3PY         0.01649   0.07358  -0.01985   0.01177   0.02738
  27        3PZ         0.03099  -0.00944  -0.01961   0.04971  -0.00081
  28        4S          0.50907  -0.43402   1.22928   2.84730  -0.00281
  29        4PX        -0.21367  -0.19249  -0.59142   2.05986  -0.01100
  30        4PY        -0.13562  -0.80658   0.00516  -0.08504   1.04823
  31        4PZ         0.08512  -0.06347   0.89658   0.41556   0.00173
  32        5D 0        0.04041   0.02398  -0.19605  -0.10308  -0.00585
  33        5D+1       -0.03736  -0.00120  -0.21446  -0.01395  -0.00413
  34        5D-1       -0.02398  -0.15938  -0.00141  -0.01781   0.01981
  35        5D+2       -0.11251   0.02574  -0.09189   0.05564  -0.00253
  36        5D-2        0.02286   0.26096  -0.00229   0.02767  -0.10270
  37 3   H  1S          0.06741   0.26157   0.16171  -0.05748  -0.13283
  38        2S         -0.28094  -0.76955  -0.95014  -0.11483   0.68105
  39        3S          0.11315   0.29909   0.06829   0.20688  -0.05488
  40        4PX         0.09340   0.22697   0.07687  -0.54146   0.45064
  41        4PY        -0.03979   0.10873  -0.11786   0.16878  -0.52950
  42        4PZ         0.05691   0.25871  -0.20816  -0.46441  -0.39942
  43 4   H  1S          0.15503  -0.07198  -0.10125  -0.05111  -0.06863
  44        2S         -0.67466  -0.16208   0.14752   0.34582   0.19179
  45        3S         -0.06008  -0.28508  -0.25652   0.01087  -0.09191
  46        4PX        -0.24852   0.51431   0.25479  -0.16318   0.16323
  47        4PY        -0.01204  -0.27313   0.08554   0.00089  -0.16055
  48        4PZ        -0.00138   0.00584   0.37460  -0.08871   0.12097
  49 5   H  1S          0.11797  -0.02371   0.13244  -0.02995  -0.01473
  50        2S         -0.41144   0.02517   0.01867   0.27287   0.03807
  51        3S         -0.01852  -0.00832   0.51570  -0.03695   0.02289
  52        4PX        -0.42480   0.08813  -0.48358  -0.11176  -0.01514
  53        4PY        -0.07368  -0.35264  -0.03426  -0.06465  -0.05618
  54        4PZ         0.05666   0.00954   0.20929  -0.04342   0.02004
  55 6   H  1S          0.11605   0.03484  -0.09949  -0.02852   0.00930
  56        2S         -0.41166   0.24316   0.09978   0.33788  -0.10319
  57        3S         -0.02472   0.30056  -0.26544   0.07541   0.03677
  58        4PX        -0.39075  -0.33000   0.26898  -0.26897  -0.11135
  59        4PY        -0.10989  -0.29240  -0.03066  -0.14986  -0.18311
  60        4PZ        -0.00152   0.04312   0.38410  -0.09117  -0.05183
  61 7   H  1S          0.03435  -0.27099   0.15651  -0.11643   0.14930
  62        2S         -0.09510   0.86658  -0.90401   0.05720  -0.73663
  63        3S          0.03483  -0.36601   0.08090   0.13075   0.06556
  64        4PX        -0.00349  -0.11573   0.14714  -0.56574  -0.43967
  65        4PY         0.02777   0.12871   0.14005  -0.15295  -0.48689
  66        4PZ        -0.00835  -0.15198  -0.26207  -0.48371   0.41622
                          41        42        43        44        45
                           V         V         V         V         V
     Eigenvalues --     1.83759   1.94290   2.02072   2.16274   2.20264
   1 1   C  1S          0.00018  -0.00080  -0.02332  -0.00375  -0.00850
   2        2S          0.00074  -0.00176  -0.03259  -0.00715  -0.01900
   3        2PX        -0.01311  -0.06098   0.16090   0.01350   0.06584
   4        2PY         0.20139   0.01519   0.01524  -0.29023  -0.00865
   5        2PZ        -0.01082   0.25903   0.01911   0.00445   0.15340
   6        3S         -0.02189   0.03776   0.09079   0.04616   0.13657
   7        3PX         0.00323   0.05659  -0.12772  -0.00680   0.02365
   8        3PY        -0.28175  -0.04368   0.00459   0.55904   0.01312
   9        3PZ         0.01414  -0.46380  -0.02394  -0.01814  -0.25408
  10        4S          0.16369  -0.15308  -0.24428  -0.14349   0.13629
  11        4PX        -0.06098  -0.01898   0.53762   0.04855   0.00851
  12        4PY         0.48714   0.04100   0.02341  -0.47383  -0.01939
  13        4PZ        -0.01755   0.66078   0.00215  -0.00260   0.28711
  14        5D 0       -0.00770  -0.43840  -0.38232   0.06437  -0.44911
  15        5D+1       -0.02990  -0.00885   0.09642   0.02458   0.57849
  16        5D-1        0.41887  -0.01830   0.00782  -0.66998   0.00561
  17        5D+2        0.02845  -0.30181   0.60793   0.04935  -0.35337
  18        5D-2       -0.24278  -0.04866   0.04785  -0.43283  -0.01103
  19 2   N  1S         -0.00167   0.02695   0.00485   0.00253  -0.01687
  20        2S         -0.00355   0.05375   0.00282   0.00479  -0.02596
  21        2PX        -0.00836   0.06854  -0.01013  -0.00268  -0.12880
  22        2PY        -0.10759  -0.01126   0.00531  -0.19399   0.00179
  23        2PZ        -0.00250  -0.03807  -0.04036   0.00584   0.19572
  24        3S          0.04248  -0.35029   0.04215  -0.04238   0.07317
  25        3PX        -0.00606   0.16790  -0.42857  -0.02538  -0.00025
  26        3PY        -0.25699  -0.02714   0.02196  -0.16147  -0.00870
  27        3PZ         0.00102  -0.07095   0.10682   0.00954   0.00832
  28        4S         -0.19707   0.32191   0.88975   0.13216  -0.21853
  29        4PX        -0.02596  -0.08013  -0.20418   0.08336   0.00256
  30        4PY        -0.12508  -0.00353  -0.06084   0.09255   0.02510
  31        4PZ        -0.04178  -0.10871   0.10550   0.02463  -0.11261
  32        5D 0        0.00796  -0.28322  -0.04785   0.01542   0.10029
  33        5D+1        0.03474  -0.34237  -0.06080  -0.01306   0.03426
  34        5D-1        0.26806   0.00195  -0.00637   0.31702   0.02743
  35        5D+2        0.00221  -0.15321  -0.07129  -0.00106   0.15823
  36        5D-2       -0.23230  -0.00402   0.00254   0.17572   0.00227
  37 3   H  1S         -0.39285   0.33901   0.26897  -0.28599  -0.63470
  38        2S          0.56857  -0.51318  -0.79132   0.30260   0.87403
  39        3S         -0.45674   0.18464   0.17318  -0.24388  -0.31444
  40        4PX        -0.19307   0.11504   0.01340  -0.05154   0.03418
  41        4PY        -0.13931   0.24066  -0.21042  -0.13429  -0.18469
  42        4PZ         0.33377  -0.00432   0.23178   0.22184   0.02045
  43 4   H  1S         -0.16174   0.12943  -0.36680   0.30555   0.04199
  44        2S          0.40213  -0.24189   0.55175  -0.57706  -0.16876
  45        3S         -0.47630   0.25625  -0.24584   0.42230   0.13325
  46        4PX         0.08062   0.14810  -0.46499   0.35654   0.20049
  47        4PY        -0.22980  -0.20828   0.19114   0.25694  -0.15091
  48        4PZ        -0.12438  -0.44537  -0.17641   0.21683  -0.40376
  49 5   H  1S         -0.00472  -0.27132  -0.39268  -0.05020  -0.20354
  50        2S         -0.02421   0.59630   0.62137   0.07343   0.27832
  51        3S         -0.00425  -0.60485  -0.28892  -0.01494  -0.22884
  52        4PX         0.03346  -0.02878  -0.47042   0.00762  -0.42927
  53        4PY        -0.49490  -0.01752  -0.01620   0.54487  -0.01515
  54        4PZ         0.01638  -0.21329   0.21721  -0.00505   0.08535
  55 6   H  1S          0.18308   0.18067  -0.37456  -0.39043   0.00119
  56        2S         -0.46201  -0.33827   0.55845   0.68057  -0.12493
  57        3S          0.46560   0.32758  -0.24853  -0.45332   0.08052
  58        4PX        -0.09037   0.10605  -0.44041  -0.33791   0.19223
  59        4PY        -0.25025   0.14863  -0.22251   0.16101   0.14365
  60        4PZ         0.16912  -0.46020  -0.15156  -0.21584  -0.40880
  61 7   H  1S          0.34705   0.36784   0.26237   0.31277  -0.63379
  62        2S         -0.40781  -0.53564  -0.72614  -0.36528   0.85080
  63        3S          0.42886   0.22903   0.17275   0.28003  -0.32119
  64        4PX         0.21060   0.12477   0.03322   0.01780   0.01993
  65        4PY        -0.15834  -0.28949   0.26738  -0.13501   0.16895
  66        4PZ        -0.29900  -0.03150   0.20638  -0.25942   0.00005
                          46        47        48        49        50
                           V         V         V         V         V
     Eigenvalues --     2.28114   2.33781   2.35037   2.41945   2.42894
   1 1   C  1S         -0.05122   0.00959   0.00321  -0.01221   0.00481
   2        2S         -0.09272   0.02232   0.00506  -0.02769   0.01028
   3        2PX         0.31696  -0.05090   0.00825  -0.08425   0.07760
   4        2PY        -0.00214  -0.01657  -0.48431   0.17915   0.35357
   5        2PZ         0.02932   0.14289  -0.07148   0.49576  -0.37649
   6        3S          0.53623  -0.15659  -0.03109   0.19813  -0.06327
   7        3PX        -0.30327  -0.03744   0.00359   0.09583  -0.13222
   8        3PY        -0.06771   0.13208   0.58804   0.72357   0.84201
   9        3PZ        -0.00575  -0.93690   0.06359  -0.18026   0.16926
  10        4S         -0.45366  -0.29200   0.07746   0.64687  -0.46335
  11        4PX        -0.08380  -0.06169  -0.01109  -0.09042   0.03182
  12        4PY        -0.03050   0.01830  -0.03717   0.52131   0.75706
  13        4PZ         0.03730  -0.58883   0.03109   0.36351  -0.16484
  14        5D 0        0.36861  -0.13354  -0.10550   0.49594  -0.28864
  15        5D+1       -0.15050   0.00597  -0.04806  -0.02983   0.02700
  16        5D-1        0.10842   0.01809   0.56569  -0.23714  -0.52919
  17        5D+2       -0.49568  -0.07039  -0.03861   0.33048  -0.29573
  18        5D-2       -0.01579   0.06360   0.23283   0.31309   0.32227
  19 2   N  1S         -0.00836  -0.02451   0.00084   0.02071  -0.01029
  20        2S         -0.01585  -0.06345   0.00160   0.05284  -0.02721
  21        2PX         0.00240   0.00665   0.01338  -0.01404   0.01442
  22        2PY         0.01225   0.01694   0.08818   0.00468  -0.02887
  23        2PZ         0.00586   0.02795  -0.02085   0.00074  -0.00393
  24        3S          0.12268   0.46646   0.00228  -0.38157   0.19762
  25        3PX         0.24041  -0.44531  -0.00409   0.37303  -0.21423
  26        3PY         0.00389  -0.05720  -0.26654  -0.26379  -0.37702
  27        3PZ        -0.02752   0.27048   0.00264  -0.22044   0.14194
  28        4S         -0.25655   1.35829  -0.11282  -1.10645   0.60891
  29        4PX         0.03149  -0.50306   0.04911  -0.04804   0.15385
  30        4PY        -0.00256   0.02308  -0.06871  -0.24209  -0.36147
  31        4PZ        -0.06207   0.90907  -0.09659  -0.25834   0.06003
  32        5D 0        0.15671   0.36012  -0.08794   0.11305  -0.09068
  33        5D+1       -0.05506  -0.26297   0.05566  -0.09305   0.09295
  34        5D-1        0.02805   0.01762   0.34797  -0.16958  -0.32529
  35        5D+2       -0.21807   0.10053  -0.02440   0.13075  -0.09288
  36        5D-2        0.01570   0.01099   0.31199   0.01118   0.00580
  37 3   H  1S         -0.03196   0.46805   0.36144  -0.13184   0.36786
  38        2S          0.17634  -1.65424  -0.63975   0.44126  -1.25056
  39        3S          0.04875   0.22944   0.36011   0.07802   0.34507
  40        4PX        -0.01120  -0.32557   0.07454   0.24202  -0.44812
  41        4PY         0.10636  -0.65430  -0.14444   0.05277  -0.44722
  42        4PZ        -0.08645  -0.05776   0.29219  -0.15415   0.23073
  43 4   H  1S         -0.64587   0.45404   0.56091   0.47920   0.06645
  44        2S          0.80737  -0.93652  -0.81059  -1.35272  -1.15253
  45        3S         -0.19509   0.31249   0.49460   0.29416  -0.07477
  46        4PX         0.27091   0.15337  -0.17377   0.05121   0.51743
  47        4PY         0.10880   0.26712  -0.10521   0.57178   0.63494
  48        4PZ        -0.02425   0.00384  -0.24732  -0.16819  -0.61392
  49 5   H  1S         -0.64168  -0.72393   0.15947  -0.32881   0.27600
  50        2S          0.67804   1.83060  -0.21627  -0.16157  -0.06254
  51        3S         -0.21853  -0.41296   0.09472  -0.37668   0.27283
  52        4PX         0.40475  -0.13285  -0.00917   0.15910  -0.06356
  53        4PY        -0.02828  -0.09867  -0.42159  -0.10560  -0.11622
  54        4PZ         0.18990  -0.66543  -0.01385   0.47566  -0.25239
  55 6   H  1S         -0.63174   0.27132  -0.60005  -0.09042  -0.48281
  56        2S          0.64983  -0.48445   0.83659   0.90188   1.65583
  57        3S         -0.19737   0.16366  -0.54971   0.03394  -0.19335
  58        4PX         0.40540   0.13997   0.17184  -0.46942  -0.29742
  59        4PY        -0.18652  -0.11664  -0.05782   0.39986   0.74690
  60        4PZ        -0.00878   0.16823   0.16773   0.52114   0.25017
  61 7   H  1S         -0.08177   0.34773  -0.33421  -0.49521  -0.02326
  62        2S          0.23254  -1.38463   0.73575   1.55363   0.24862
  63        3S          0.01539   0.09051  -0.35800  -0.37294  -0.16059
  64        4PX        -0.03786  -0.29601  -0.08644   0.47499  -0.01261
  65        4PY        -0.09153   0.55105  -0.25638  -0.52209  -0.22759
  66        4PZ        -0.09599  -0.11705  -0.18572  -0.25625   0.07154
                          51        52        53        54        55
                           V         V         V         V         V
     Eigenvalues --     2.46606   2.53551   2.63264   2.72992   2.73313
   1 1   C  1S         -0.01241   0.00262   0.00656  -0.01708  -0.04117
   2        2S         -0.02859   0.00711  -0.00776  -0.04991  -0.10826
   3        2PX        -0.00397  -0.02164   0.57631   0.14336   0.19989
   4        2PY        -0.01301  -0.17756  -0.02407   0.47198  -0.24023
   5        2PZ        -0.32463  -0.01221   0.29085  -0.14130  -0.29489
   6        3S          0.20183  -0.05453   0.10410   0.34960   0.72502
   7        3PX         0.17490  -0.03562  -0.11856   0.15323   0.34176
   8        3PY        -0.02632   0.75752   0.01508  -0.11791   0.11019
   9        3PZ        -1.08289  -0.03249  -0.27674   0.09231   0.31361
  10        4S          0.53170  -0.08429   0.44286   1.29041   2.61311
  11        4PX         0.04974  -0.05806   0.45442   0.09473   0.12947
  12        4PY        -0.07539   0.18512  -0.01875   0.31960  -0.11866
  13        4PZ        -0.71362   0.01492   0.08209  -0.15908  -0.22607
  14        5D 0       -0.41070  -0.04361   0.43635  -0.01695  -0.13825
  15        5D+1       -0.61656  -0.01153   0.04646  -0.13563  -0.20955
  16        5D-1       -0.07160   0.12729   0.04870  -0.36226   0.17837
  17        5D+2       -0.11627  -0.03328  -0.31087  -0.22450  -0.30864
  18        5D-2       -0.05420   0.19806  -0.08444   0.67161  -0.35867
  19 2   N  1S          0.01041   0.00139  -0.01418   0.00567   0.01564
  20        2S          0.03038   0.00368  -0.03481   0.01188   0.03227
  21        2PX        -0.04876   0.00445   0.01774   0.04412   0.08880
  22        2PY        -0.00184  -0.05327  -0.01395   0.13765  -0.07662
  23        2PZ        -0.01195  -0.00131   0.01792  -0.05202  -0.11635
  24        3S         -0.22015  -0.03563   0.17019  -0.04785  -0.10330
  25        3PX         0.30009   0.02550  -0.29563   0.11711   0.26469
  26        3PY        -0.00897   0.95233   0.00491   0.28970  -0.10708
  27        3PZ        -0.17764  -0.03103   0.15099  -0.04409  -0.08987
  28        4S         -1.07488  -0.07666   1.22177  -0.57781  -1.50029
  29        4PX         0.10304   0.05675   0.04062  -0.12817  -0.27457
  30        4PY         0.02130   0.44625  -0.01340   0.73111  -0.33027
  31        4PZ        -0.25940  -0.05102   0.15268  -0.07352  -0.17810
  32        5D 0       -0.21522   0.00300  -0.72734   0.08440   0.41823
  33        5D+1        0.16037   0.02220   0.22269  -0.08013  -0.16463
  34        5D-1       -0.03373   0.00437  -0.08517   0.72734  -0.32935
  35        5D+2       -0.14371  -0.02800   0.41028   0.32431   0.57875
  36        5D-2       -0.01272  -0.36604  -0.04306   0.24767  -0.15505
  37 3   H  1S         -0.34194  -0.67164   0.12887  -0.05444   0.14760
  38        2S          1.00406   1.92076  -0.74800   0.98193   0.14892
  39        3S         -0.11822  -0.41898   0.07558   0.03576  -0.02283
  40        4PX         0.22135   0.46675  -0.09758   0.65664   0.18315
  41        4PY         0.33393   0.75875  -0.25387   0.29893   0.00987
  42        4PZ         0.02305  -0.42673   0.35353  -0.11039  -0.32117
  43 4   H  1S          0.21791   0.39203   0.26149  -0.11035   0.25720
  44        2S         -1.13966  -0.94474  -0.57798  -0.91573  -1.08032
  45        3S          0.03162   0.18675   0.05633  -0.36055  -0.12071
  46        4PX         0.17822   0.21390   0.21154   0.18852   0.13623
  47        4PY         0.74534   0.20904   0.16472   0.64509   0.31546
  48        4PZ        -0.13581  -0.29856   0.04028  -0.38147  -0.29866
  49 5   H  1S         -0.42302  -0.01041  -0.10062   0.20393   0.43063
  50        2S          1.77695   0.07064  -0.22289  -0.58512  -1.28862
  51        3S         -0.11144   0.00234  -0.26235   0.04973   0.12382
  52        4PX        -0.42246  -0.00123   0.20888   0.06768   0.12426
  53        4PY        -0.02388  -0.28834   0.01479   0.03417  -0.01477
  54        4PZ        -1.06319  -0.05009   0.26996   0.18841   0.43553
  55 6   H  1S          0.25145  -0.45360   0.18682   0.32869   0.05106
  56        2S         -1.21691   1.06729  -0.55667  -0.43184  -1.29989
  57        3S          0.01720  -0.17924  -0.00870   0.14808  -0.33032
  58        4PX         0.23928  -0.21362   0.21865   0.02476   0.28860
  59        4PY        -0.73324   0.27197  -0.20581   0.09091  -0.68132
  60        4PZ        -0.12751   0.27798   0.01915   0.02141  -0.43819
  61 7   H  1S         -0.34732   0.68319   0.16473   0.17035   0.09046
  62        2S          0.97862  -1.81166  -0.76561  -0.66527   0.77868
  63        3S         -0.11023   0.42668   0.11114  -0.01459   0.04932
  64        4PX         0.23395  -0.45476  -0.04785  -0.26894   0.58751
  65        4PY        -0.33076   0.71375   0.26516   0.24533  -0.25716
  66        4PZ         0.06173   0.38117   0.37875  -0.12557  -0.26788
                          56        57        58        59        60
                           V         V         V         V         V
     Eigenvalues --     2.86546   2.95717   3.20063   3.44219   3.75155
   1 1   C  1S         -0.06864   0.01703   0.00143  -0.03403  -0.00258
   2        2S         -0.16648   0.03527   0.00250  -0.07346  -0.00732
   3        2PX        -0.09039   0.18532   0.01046  -0.98182  -0.13490
   4        2PY         0.00384  -0.03090  -0.22971  -0.04305  -0.23748
   5        2PZ         0.13320  -0.06436   0.04518   0.03195  -1.04792
   6        3S          1.09699  -0.19342  -0.00836   0.63892   0.10014
   7        3PX         0.57083  -0.37236  -0.02666   2.05571   0.24625
   8        3PY         0.07065   0.04906   0.64785   0.11788   0.68174
   9        3PZ        -0.03399  -0.05440  -0.11619  -0.17548   3.07381
  10        4S          3.44707  -0.31372  -0.05230  -0.63197  -0.37201
  11        4PX        -0.12608  -0.04786  -0.00425   0.38296   0.12960
  12        4PY         0.06998  -0.02121   0.17596  -0.01679  -0.01121
  13        4PZ         0.08338  -0.27266   0.00049  -0.15076   0.00713
  14        5D 0        0.11567  -0.16892  -0.01668   0.21425   1.11567
  15        5D+1        0.14817  -0.59135  -0.03988  -0.29181   0.85462
  16        5D-1        0.00683  -0.01797  -0.06722  -0.03174  -0.07296
  17        5D+2        0.09217   0.08270  -0.04045  -0.59658   0.30317
  18        5D-2        0.01694  -0.01540   0.64067  -0.00754   0.25229
  19 2   N  1S         -0.02607  -0.03259  -0.00110  -0.03975  -0.01747
  20        2S         -0.06142  -0.06652  -0.00220  -0.07224  -0.03110
  21        2PX        -0.21974  -0.30720  -0.00030   0.54182   0.00414
  22        2PY        -0.00153   0.00353  -0.56110   0.00808   0.00750
  23        2PZ         0.05875   0.08646   0.02106   0.38696  -0.33437
  24        3S          0.56643   0.33386   0.01789   0.24165   0.12825
  25        3PX        -0.06175  -0.19696  -0.00771  -0.42121  -0.03020
  26        3PY         0.02210  -0.00305   0.01383  -0.00394  -0.00079
  27        3PZ         0.13868   0.19409  -0.00322  -0.21450   0.48311
  28        4S         -0.45965   1.65764   0.02388   2.18900   0.73455
  29        4PX        -0.99642  -0.97490  -0.01353   0.67660   0.17732
  30        4PY         0.04392  -0.00377  -0.92204   0.01896  -0.02881
  31        4PZ         0.23194   0.52122   0.03133   0.58224  -0.16964
  32        5D 0       -0.01067  -0.33668   0.01736  -0.45914  -0.26399
  33        5D+1       -0.06343  -1.03494  -0.02720  -0.12946  -0.18959
  34        5D-1       -0.01257  -0.01607  -0.54609  -0.00417   0.00721
  35        5D+2       -0.74921  -0.01851   0.03654   0.40825   0.03445
  36        5D-2        0.00544  -0.03934   1.04176  -0.02524  -0.02921
  37 3   H  1S          0.00268  -0.31734  -0.43257  -0.01322  -0.10971
  38        2S         -0.57308  -0.96076  -0.56881  -0.74613  -0.18173
  39        3S         -0.13472  -0.18909  -0.29201   0.06306  -0.00401
  40        4PX        -0.41835  -0.20320  -0.34004  -0.20277  -0.11931
  41        4PY        -0.16461  -0.67770  -0.50626  -0.28555  -0.12759
  42        4PZ         0.14196   0.18149   0.31781   0.12830   0.08175
  43 4   H  1S          0.44652  -0.12374  -0.26795  -0.22392   0.19054
  44        2S         -1.71252   0.22670  -0.22520  -0.58703   0.50111
  45        3S         -0.01599  -0.02397  -0.00555   0.03983  -0.10376
  46        4PX         0.17683  -0.12552  -0.07279   0.04421  -0.16827
  47        4PY         0.58392   0.01261   0.22971   0.52006  -0.42751
  48        4PZ        -0.32737   0.09618  -0.24672  -0.24139  -0.02961
  49 5   H  1S          0.41544   0.28549   0.00498  -0.05085  -0.72993
  50        2S         -1.86105   0.24312   0.07624  -0.23517  -1.61171
  51        3S         -0.09623   0.21221  -0.01598   0.00677   0.36558
  52        4PX         0.19501   0.15107  -0.01338   0.03152   0.46950
  53        4PY         0.02539  -0.02561  -0.20265   0.00495   0.02794
  54        4PZ         0.84916  -0.38134  -0.03797   0.29864   1.39130
  55 6   H  1S          0.43786  -0.15448   0.25629  -0.19080   0.40595
  56        2S         -1.59707   0.29646   0.21856  -0.53789   1.00968
  57        3S          0.00723  -0.07108   0.03251   0.01942  -0.22032
  58        4PX         0.20103  -0.14056   0.03938   0.07126  -0.42330
  59        4PY        -0.55142  -0.00813   0.21328  -0.48460   0.74125
  60        4PZ        -0.26448   0.12013   0.25369  -0.18452   0.18052
  61 7   H  1S          0.05550  -0.32133   0.41002  -0.02517  -0.13648
  62        2S         -0.71286  -0.91096   0.55947  -0.74231  -0.13987
  63        3S         -0.11010  -0.19093   0.28409   0.06206  -0.01372
  64        4PX        -0.45290  -0.17400   0.33282  -0.19491  -0.11449
  65        4PY         0.20823   0.68253  -0.51275   0.30052   0.14552
  66        4PZ         0.15335   0.15420  -0.28934   0.12240   0.07251
                          61        62        63        64        65
                           V         V         V         V         V
     Eigenvalues --     3.80649   3.95562   4.64338   4.96420  23.88264
   1 1   C  1S         -0.00047  -0.00267   0.00010   0.02356  -2.03732
   2        2S         -0.00058  -0.01144   0.00052   0.00906   2.23457
   3        2PX         0.09944  -0.38697   0.01551  -0.59428   0.02293
   4        2PY        -1.09666  -0.04702   0.04730   0.00629   0.00301
   5        2PZ         0.19167   0.41994  -0.00125  -0.05842   0.00021
   6        3S         -0.00218   0.18677  -0.00946   0.14536  -0.69965
   7        3PX        -0.22944   0.94458  -0.04748   1.83413  -0.16244
   8        3PY         3.21790   0.15535  -0.05509  -0.01794  -0.02111
   9        3PZ        -0.58141  -1.16769   0.00361   0.17556  -0.00178
  10        4S          0.15581  -0.74269   0.00633   0.03587  -0.07831
  11        4PX        -0.04204   0.25835  -0.01032  -0.02991   0.00924
  12        4PY        -0.12309  -0.00609   0.12381   0.00413  -0.00240
  13        4PZ         0.00445   0.20745  -0.00063   0.05623   0.00808
  14        5D 0       -0.14204  -0.18334  -0.00470   0.45164  -0.02413
  15        5D+1       -0.10430  -0.16442   0.00588  -0.14397   0.00592
  16        5D-1       -1.10267  -0.10553  -0.04558   0.02659   0.00271
  17        5D+2       -0.10304  -0.48021   0.02003  -0.79267   0.04482
  18        5D-2        0.91998   0.02268   0.11750  -0.02078   0.00311
  19 2   N  1S          0.00671  -0.02848   0.00069   0.00223   0.00552
  20        2S          0.01170  -0.05151   0.00127   0.01069  -0.00306
  21        2PX        -0.02154  -0.04731   0.01960  -1.23537  -0.03400
  22        2PY         0.16860  -0.01709  -1.22342  -0.01959  -0.00094
  23        2PZ         0.10707  -1.15330   0.02229   0.20996  -0.00046
[...]
 Calling FoFJK, ICntrl=    100127 FMM=F ISym2X=0 I1Cent= 0 IOpClX= 0 NMat=1 NMatS=1 NMatT=0.
 Full mass-weighted force constant matrix:
 Low frequencies ---  -21.3749   -9.0034   -4.5108   -0.0012   -0.0008   -0.0006
 Low frequencies ---  315.3375  849.8634  979.4396
 Harmonic frequencies (cm**-1), IR intensities (KM/Mole), Raman scattering
 activities (A**4/AMU), depolarization ratios for plane and unpolarized
 incident light, reduced masses (AMU), force constants (mDyne/A),
 and normal coordinates:
                     1                      2                      3
                     A                      A                      A
 Frequencies --   315.3278               849.8630               979.4395
 Red. masses --     1.0305                 1.2430                 1.0523
 Frc consts  --     0.0604                 0.5290                 0.5948
 IR Inten    --    38.8527               164.4733                 0.0140
  Atom  AN      X      Y      Z        X      Y      Z        X      Y      Z
     1   6     0.00   0.00   0.00    -0.04   0.00   0.01     0.00   0.06   0.00
     2   7     0.00  -0.04   0.00     0.09   0.00   0.09     0.00   0.00   0.00
     3   1    -0.04   0.26   0.49    -0.35  -0.11  -0.54     0.43  -0.12   0.15
     4   1    -0.08   0.20   0.30    -0.15  -0.02  -0.12     0.46  -0.15   0.01
     5   1     0.00  -0.31   0.00     0.26   0.00  -0.09     0.00  -0.28   0.00
     6   1     0.08   0.20  -0.30    -0.15   0.02  -0.12    -0.46  -0.15  -0.01
     7   1     0.04   0.26  -0.49    -0.35   0.11  -0.54    -0.43  -0.12  -0.15
                     4                      5                      6
                     A                      A                      A
 Frequencies --  1055.6941              1170.0808              1351.9533
 Red. masses --     3.3686                 1.3985                 1.3447
 Frc consts  --     2.2119                 1.1281                 1.4482
 IR Inten    --     8.0979                 7.0761                 0.2066
  Atom  AN      X      Y      Z        X      Y      Z        X      Y      Z
     1   6     0.33   0.00   0.08    -0.06   0.00   0.14     0.00   0.14   0.00
     2   7    -0.29   0.00  -0.03     0.04   0.00  -0.10     0.00  -0.10   0.00
     3   1    -0.39  -0.01  -0.11     0.15   0.09   0.19    -0.54   0.10  -0.11
     4   1     0.12  -0.02  -0.12    -0.38  -0.08  -0.27     0.34  -0.07  -0.09
     5   1     0.64   0.00  -0.06     0.62   0.00  -0.10     0.00  -0.31   0.00
     6   1     0.12   0.02  -0.12    -0.38   0.08  -0.27    -0.34  -0.07   0.09
     7   1    -0.39   0.01  -0.11     0.15  -0.09   0.19     0.54   0.10   0.11
                     7                      8                      9
                     A                      A                      A
 Frequencies --  1461.0570              1496.9132              1518.9112
 Red. masses --     1.1597                 1.0546                 1.0331
 Frc consts  --     1.4585                 1.3923                 1.4043
 IR Inten    --     2.3097                 7.4143                 3.4195
  Atom  AN      X      Y      Z        X      Y      Z        X      Y      Z
     1   6     0.12   0.00  -0.01    -0.03   0.00  -0.05     0.00  -0.04   0.00
     2   7     0.01   0.00   0.00     0.00   0.00  -0.01     0.00  -0.02   0.00
     3   1    -0.03   0.02   0.00     0.01   0.00   0.01    -0.08   0.01  -0.01
     4   1    -0.55   0.31   0.02    -0.05   0.32   0.50     0.33   0.05   0.38
     5   1    -0.40   0.00   0.15     0.49   0.00  -0.19     0.00   0.68   0.00
     6   1    -0.55  -0.31   0.02    -0.05  -0.32   0.50    -0.33   0.05  -0.39
     7   1    -0.03  -0.02   0.00     0.01   0.00   0.01     0.08   0.01   0.01
                    10                     11                     12
                     A                      A                      A
 Frequencies --  1668.2518              2948.2336              3051.9037
 Red. masses --     1.0835                 1.0604                 1.0726
 Frc consts  --     1.7766                 5.4305                 5.8860
 IR Inten    --    22.9267               103.3640                41.5592
  Atom  AN      X      Y      Z        X      Y      Z        X      Y      Z
     1   6     0.00   0.00  -0.02    -0.03   0.00  -0.06    -0.04   0.00   0.07
     2   7     0.07   0.00  -0.02     0.00   0.00   0.00     0.00   0.00   0.00
     3   1    -0.50   0.41   0.27     0.00   0.01   0.00    -0.01  -0.01   0.01
     4   1     0.06  -0.01   0.01     0.06   0.13  -0.10     0.24   0.56  -0.30
     5   1    -0.03   0.00  -0.02     0.30   0.00   0.92    -0.07   0.00  -0.19
     6   1     0.06   0.01   0.01     0.06  -0.13  -0.10     0.25  -0.57  -0.31
     7   1    -0.50  -0.41   0.27     0.00  -0.01   0.00    -0.01   0.01   0.01
                    13                     14                     15
                     A                      A                      A
 Frequencies --  3087.1886              3489.3727              3563.8072
 Red. masses --     1.1029                 1.0491                 1.0929
 Frc consts  --     6.1934                 7.5263                 8.1784
 IR Inten    --    38.4959                 1.5186                 0.1008
  Atom  AN      X      Y      Z        X      Y      Z        X      Y      Z
     1   6     0.00   0.09   0.00     0.00   0.00   0.00     0.00   0.00   0.00
     2   7     0.00   0.00   0.00    -0.04   0.00   0.04     0.00   0.08   0.00
     3   1     0.00   0.01  -0.01     0.27   0.58  -0.29    -0.28  -0.56   0.32
     4   1    -0.26  -0.57   0.34     0.00   0.01  -0.01    -0.01  -0.01   0.01
     5   1     0.00   0.02   0.00     0.00   0.00  -0.01     0.00   0.00   0.00
     6   1     0.25  -0.56  -0.33     0.00  -0.01  -0.01     0.01  -0.01  -0.01
     7   1     0.00   0.01   0.01     0.27  -0.59  -0.29     0.28  -0.56  -0.32

 -------------------
 - Thermochemistry -
 -------------------
 Temperature   298.150 Kelvin.  Pressure   1.00000 Atm.
 Atom     1 has atomic number  6 and mass  12.00000
 Atom     2 has atomic number  7 and mass  14.00307
 Atom     3 has atomic number  1 and mass   1.00783
 Atom     4 has atomic number  1 and mass   1.00783
 Atom     5 has atomic number  1 and mass   1.00783
 Atom     6 has atomic number  1 and mass   1.00783
 Atom     7 has atomic number  1 and mass   1.00783
 Molecular mass:    31.04220 amu.
 Principal axes and moments of inertia in atomic units:
                           1         2         3
     Eigenvalues --    17.44725  79.55055  82.71052
           X            0.99927  -0.00001  -0.03813
           Y            0.00001   1.00000  -0.00001
           Z            0.03813   0.00001   0.99927
 This molecule is an asymmetric top.
 Rotational symmetry number  1.
 Rotational temperatures (Kelvin)      4.96433     1.08879     1.04719
 Rotational constants (GHZ):         103.43988    22.68672    21.81997
 Zero-point vibrational energy     167525.0 (Joules/Mol)
                                   40.03944 (Kcal/Mol)
 Warning -- explicit consideration of   1 degrees of freedom as
           vibrations may cause significant error
 Vibrational temperatures:    453.69  1222.76  1409.19  1518.91  1683.48
          (Kelvin)           1945.16  2102.13  2153.72  2185.37  2400.24
                             4241.85  4391.00  4441.77  5020.42  5127.52
 
 Zero-point correction=                           0.063807 (Hartree/Particle)
 Thermal correction to Energy=                    0.067221
 Thermal correction to Enthalpy=                  0.068165
 Thermal correction to Gibbs Free Energy=         0.040892
 Sum of electronic and zero-point Energies=            -95.824632
 Sum of electronic and thermal Energies=               -95.821218
 Sum of electronic and thermal Enthalpies=             -95.820274
 Sum of electronic and thermal Free Energies=          -95.847547
 
                     E (Thermal)             CV                S
                      KCal/Mol        Cal/Mol-Kelvin    Cal/Mol-Kelvin
 Total                   42.182              9.522             57.402
 Electronic               0.000              0.000              0.000
 Translational            0.889              2.981             36.231
 Rotational               0.889              2.981             19.379
 Vibrational             40.404              3.560              1.792
 Vibration     1          0.703              1.644              1.334
                       Q            Log10(Q)             Ln(Q)
 Total Bot       0.155302D-18        -18.808823        -43.308915
 Total V=0       0.346942D+11         10.540257         24.269839
 Vib (Bot)       0.595636D-29        -29.225019        -67.293093
 Vib (Bot)    1  0.597805D+00         -0.223440         -0.514490
 Vib (V=0)       0.133064D+01          0.124061          0.285661
 Vib (V=0)    1  0.127934D+01          0.106986          0.246344
 Electronic      0.100000D+01          0.000000          0.000000
 Translational   0.679804D+07          6.832384         15.732145
 Rotational      0.383541D+04          3.583812          8.252032
 ***** Axes restored to original set *****
 -------------------------------------------------------------------
 Center     Atomic                   Forces (Hartrees/Bohr)
 Number     Number              X              Y              Z
 -------------------------------------------------------------------
      1        6          -0.000016970    0.000025528   -0.000007392
      2        7          -0.000035223   -0.000147784   -0.000235948
      3        1           0.000067754    0.000044149    0.000112659
      4        1          -0.000005198    0.000000712    0.000003864
      5        1          -0.000020156   -0.000018188    0.000011260
      6        1          -0.000012977    0.000022479    0.000071195
      7        1           0.000022770    0.000073103    0.000044362
 -------------------------------------------------------------------
 Cartesian Forces:  Max     0.000235948 RMS     0.000073503

 GradGradGradGradGradGradGradGradGradGradGradGradGradGradGradGradGradGrad
 Berny optimization.
 Internal  Forces:  Max     0.000116276 RMS     0.000050323
 Search for a local minimum.
 Step number   1 out of a maximum of    2
 All quantities printed in internal units (Hartrees-Bohrs-Radians)
 Second derivative matrix not updated -- analytic derivatives used.
 ITU=  0
     Eigenvalues ---    0.00253   0.03120   0.06186   0.06359   0.12535
     Eigenvalues ---    0.14472   0.14530   0.17684   0.20129   0.30785
     Eigenvalues ---    0.33139   0.33287   0.36653   0.44515   0.44540
 Angle between quadratic step and forces=  66.32 degrees.
 Linear search not attempted -- first point.
 Iteration  1 RMS(Cart)=  0.00056520 RMS(Int)=  0.00000026
 Iteration  2 RMS(Cart)=  0.00000025 RMS(Int)=  0.00000001
 Variable       Old X    -DE/DX   Delta X   Delta X   Delta X     New X
                                 (Linear)    (Quad)   (Total)
    R1        2.77097  -0.00008   0.00000  -0.00024  -0.00024   2.77072
    R2        2.06578   0.00000   0.00000   0.00001   0.00001   2.06579
    R3        2.08186  -0.00003   0.00000  -0.00009  -0.00009   2.08177
    R4        2.06594  -0.00005   0.00000  -0.00015  -0.00015   2.06579
    R5        1.91795   0.00010   0.00000   0.00027   0.00027   1.91821
    R6        1.91801   0.00006   0.00000   0.00020   0.00020   1.91821
    A1        1.90664   0.00001   0.00000  -0.00002  -0.00002   1.90662
    A2        2.01660   0.00002   0.00000   0.00014   0.00014   2.01674
    A3        1.90712  -0.00008   0.00000  -0.00050  -0.00050   1.90662
    A4        1.88062   0.00000   0.00000   0.00005   0.00005   1.88068
    A5        1.86662   0.00003   0.00000   0.00015   0.00015   1.86677
    A6        1.88049   0.00003   0.00000   0.00019   0.00019   1.88068
    A7        1.92040   0.00012   0.00000   0.00056   0.00056   1.92095
    A8        1.92091   0.00000   0.00000   0.00005   0.00005   1.92095
    A9        1.85544  -0.00007   0.00000  -0.00083  -0.00083   1.85461
    D1        3.14152   0.00000   0.00000  -0.00089  -0.00089   3.14063
    D2       -1.10262  -0.00002   0.00000  -0.00154  -0.00154  -1.10416
    D3       -1.01846   0.00001   0.00000  -0.00074  -0.00074  -1.01920
    D4        1.02058  -0.00001   0.00000  -0.00139  -0.00139   1.01919
    D5        1.10493   0.00001   0.00000  -0.00078  -0.00078   1.10414
    D6       -3.13921  -0.00001   0.00000  -0.00143  -0.00143  -3.14065
         Item               Value     Threshold  Converged?
 Maximum Force            0.000116     0.000450     YES
 RMS     Force            0.000050     0.000300     YES
 Maximum Displacement     0.001260     0.001800     YES
 RMS     Displacement     0.000565     0.001200     YES
 Predicted change in Energy=-1.452802D-07
 Optimization completed.
    -- Stationary point found.
                           ----------------------------
                           !   Optimized Parameters   !
                           ! (Angstroms and Degrees)  !
 --------------------------                            --------------------------
 ! Name  Definition              Value          Derivative Info.                !
 --------------------------------------------------------------------------------
 ! R1    R(1,2)                  1.4663         -DE/DX =   -0.0001              !
 ! R2    R(1,4)                  1.0932         -DE/DX =    0.0                 !
 ! R3    R(1,5)                  1.1017         -DE/DX =    0.0                 !
 ! R4    R(1,6)                  1.0932         -DE/DX =   -0.0001              !
 ! R5    R(2,3)                  1.0149         -DE/DX =    0.0001              !
 ! R6    R(2,7)                  1.015          -DE/DX =    0.0001              !
 ! A1    A(2,1,4)              109.2424         -DE/DX =    0.0                 !
 ! A2    A(2,1,5)              115.5427         -DE/DX =    0.0                 !
 ! A3    A(2,1,6)              109.2698         -DE/DX =   -0.0001              !
 ! A4    A(4,1,5)              107.7518         -DE/DX =    0.0                 !
 ! A5    A(4,1,6)              106.9495         -DE/DX =    0.0                 !
 ! A6    A(5,1,6)              107.744          -DE/DX =    0.0                 !
 ! A7    A(1,2,3)              110.0306         -DE/DX =    0.0001              !
 ! A8    A(1,2,7)              110.0599         -DE/DX =    0.0                 !
 ! A9    A(3,2,7)              106.3088         -DE/DX =   -0.0001              !
 ! D1    D(4,1,2,3)            179.9961         -DE/DX =    0.0                 !
 ! D2    D(4,1,2,7)            -63.1752         -DE/DX =    0.0                 !
 ! D3    D(5,1,2,3)            -58.3537         -DE/DX =    0.0                 !
 ! D4    D(5,1,2,7)             58.475          -DE/DX =    0.0                 !
 ! D5    D(6,1,2,3)             63.3076         -DE/DX =    0.0                 !
 ! D6    D(6,1,2,7)           -179.8637         -DE/DX =    0.0                 !
 --------------------------------------------------------------------------------
 GradGradGradGradGradGradGradGradGradGradGradGradGradGradGradGradGradGrad


 Test job not archived.
 1\1\GINC-TERMINUS\Freq\RB3LYP\6-311G(2d,d,p)\C1H5N1\SEBASTIAN\30-Apr-2
 022\0\\#N Geom=AllCheck Guess=TCheck SCRF=Check Test GenChk RB3LYP/6-3
 11G(2d,d,p) Freq\\prueba para metilamina\\0,1\C,-0.0058821019,0.019113
 4386,0.0255395044\N,-0.0265528691,-0.0429657281,1.4904107251\H,0.92159
 81572,-0.0308805145,1.8522857826\H,-1.0323649857,0.0052845593,-0.35015
 86769\H,0.4977627778,0.8989858455,-0.4055631227\H,0.4890293974,-0.8734
 093585,-0.3664514152\H,-0.4859717722,0.7798717578,1.8672826609\\Versio
 n=EM64L-G09RevB.01\State=1-A\HF=-95.888439\RMSD=1.574e-09\RMSF=7.350e-
 05\ZeroPoint=0.0638069\Thermal=0.0672212\Dipole=0.2639331,0.4602862,-0
 .1077828\DipoleDeriv=0.2160576,0.0615953,0.0005898,0.0624802,0.2890535
 ,-0.0055753,-0.048543,-0.0903915,0.5618287,-0.2619348,-0.1222284,0.082
 9369,-0.122222,-0.4070876,0.1516027,0.0751489,0.1378192,-0.6169034,-0.
 0076457,0.0140581,-0.0878785,-0.0427471,0.2513148,-0.1001449,-0.026781
 3,-0.0415176,0.11663,-0.1501103,-0.0043115,-0.0967049,-0.0072428,0.068
 2237,0.0174888,-0.053759,-0.0015108,-0.0143119,-0.014096,-0.114324,0.0
 804777,-0.1137861,-0.1486148,0.1428207,0.0505416,0.0910949,-0.1463389,
 0.0201116,0.0887594,0.0637648,0.0916674,-0.0995067,-0.0772578,0.025968
 9,-0.0496286,-0.0170135,0.1976175,0.076451,-0.0431857,0.1318504,0.0466
 171,-0.1289342,-0.0225761,-0.0458655,0.116109\Polar=20.4216071,-0.9195
 584,19.3401459,0.3641563,0.6015712,23.0271393\PG=C01 [X(C1H5N1)]\NImag
 =0\\0.57736619,-0.01922637,0.55458297,0.00744765,0.01499805,0.47049581
 ,-0.09081987,0.01749947,-0.01164498,0.57562417,0.01704220,-0.07086929,
 -0.01816656,-0.17325474,0.37134667,0.01262868,0.02401359,-0.21567114,0
 .07371513,0.13179139,0.47041826,0.00126268,-0.00411531,0.00535783,-0.3
 7993612,0.02381622,-0.12929168,0.39406059,-0.00004489,-0.00229629,0.00
 636871,-0.02026785,-0.02537600,-0.02931755,-0.01395714,0.03006260,-0.0
 3995878,-0.00023882,-0.01714048,-0.10623737,-0.01320188,-0.09174303,0.
 12987132,0.01243303,0.10843457,-0.28256254,-0.00303902,-0.07857202,0.0
 0447286,0.00070197,-0.00178085,0.00235351,-0.00058167,0.00114869,0.302
 82494,-0.00432756,-0.04893389,-0.00071610,0.00196125,0.00082341,0.0000
 6582,-0.00020084,0.00067713,0.00007788,0.00395715,0.04662194,-0.070839
 52,-0.00156658,-0.07146007,-0.03571713,0.00368619,-0.01943272,-0.00000
 739,-0.00138032,-0.00759184,0.08684780,-0.00064214,0.08870914,-0.10310
 786,-0.08717628,0.03489404,0.00456754,0.00169671,0.00302102,0.00115643
 ,0.00152787,-0.00010395,-0.01411991,-0.02651877,0.00966144,0.10419267,
 -0.08719694,-0.20520767,0.06080873,0.00147665,0.00600692,0.00581026,0.
 00067093,0.00034035,0.00072074,-0.00037867,-0.00029328,-0.00085135,0.0
 9843641,0.21959801,0.03580504,0.06238869,-0.07465848,0.01531931,0.0271
 0485,-0.02834561,0.00097556,-0.00031137,0.00142099,-0.00332158,-0.0079
 4014,0.00458071,-0.04267640,-0.07466134,0.09081855,-0.10288669,0.09718
 982,0.03999695,0.00092562,-0.00075005,0.00063078,0.00029035,-0.0004976
 6,0.00018469,-0.01319855,0.02565449,0.01042064,0.00772333,-0.01364079,
 -0.00538536,0.10573844,0.09843112,-0.22606974,-0.07135033,-0.00176102,
 0.00501564,-0.00126462,-0.00004877,-0.00009130,-0.00066353,-0.00057353
 ,0.00113308,0.00146488,0.01226298,-0.02233304,-0.00728079,-0.10722172,
 0.24075990,0.03542012,-0.06507987,-0.07386438,0.02071655,-0.02882311,-
 0.02003687,-0.00042235,-0.00067539,0.00110053,-0.00366858,0.00932932,0
 .00407843,-0.00549760,0.00790900,0.00476218,-0.04519395,0.07795471,0.0
 9151001,0.00074809,-0.00113230,0.00252053,-0.11483419,0.13074769,0.041
 07693,-0.01918744,0.03382134,0.01509540,0.00022969,-0.00052573,-0.0003
 6584,-0.00041220,0.00063241,-0.00071657,0.00140750,-0.00108906,-0.0013
 5418,0.13204856,-0.00467755,-0.00120609,0.00805751,0.17434624,-0.28694
 735,-0.13109888,-0.00616510,-0.00331649,0.00087259,-0.00008623,-0.0000
 2839,-0.00071067,-0.00022893,0.00188871,0.00070012,-0.00073409,0.00158
 547,-0.00061466,-0.16245434,0.28802415,0.01949681,-0.03451504,-0.01770
 127,0.04384850,-0.10239088,-0.09518889,-0.00648329,0.01288290,0.005519
 25,-0.00065347,-0.00017463,0.00111635,0.00070146,0.00026396,0.00142167
 ,-0.00065375,0.00113968,-0.00754991,-0.05625626,0.12279401,0.11238281\
 \0.00001697,-0.00002553,0.00000739,0.00003522,0.00014778,0.00023595,-0
 .00006775,-0.00004415,-0.00011266,0.00000520,-0.00000071,-0.00000386,0
 .00002016,0.00001819,-0.00001126,0.00001298,-0.00002248,-0.00007119,-0
 .00002277,-0.00007310,-0.00004436\\\@


 Standing in the middle of the road is very dangerous;
 you get knocked down by the traffic from both sides.
                                -- Margaret Thatcher
 Job cpu time:  0 days  0 hours  0 minutes 25.6 seconds.
 File lengths (MBytes):  RWF=      7 Int=      0 D2E=      0 Chk=      1 Scr=      1
 Normal termination of Gaussian 09 at Sat Apr 30 16:37:29 2022.
