 Entering Gaussian System, Link 0=g09
 Input=propano-v2.inp
 Output=propano-v2.log
 Initial command:
 /usr/local/g09/l1.exe /home/g09scr/Gau-24283.inp -scrdir=/home/g09scr/
 Entering Link 1 = /usr/local/g09/l1.exe PID=     24285.
  
 Copyright (c) 1988,1990,1992,1993,1995,1998,2003,2009,2010,
            Gaussian, Inc.  All Rights Reserved.
  
 This is part of the Gaussian(R) 09 program.  It is based on
 the Gaussian(R) 03 system (copyright 2003, Gaussian, Inc.),
 the Gaussian(R) 98 system (copyright 1998, Gaussian, Inc.),
 the Gaussian(R) 94 system (copyright 1995, Gaussian, Inc.),
 the Gaussian 92(TM) system (copyright 1992, Gaussian, Inc.),
 the Gaussian 90(TM) system (copyright 1990, Gaussian, Inc.),
 the Gaussian 88(TM) system (copyright 1988, Gaussian, Inc.),
 the Gaussian 86(TM) system (copyright 1986, Carnegie Mellon
 University), and the Gaussian 82(TM) system (copyright 1983,
 Carnegie Mellon University). Gaussian is a federally registered
 trademark of Gaussian, Inc.
  
 This software contains proprietary and confidential information,
 including trade secrets, belonging to Gaussian, Inc.
  
 This software is provided under written license and may be
 used, copied, transmitted, or stored only in accord with that
 written license.
  
 The following legend is applicable only to US Government
 contracts under FAR:
  
                    RESTRICTED RIGHTS LEGEND
  
 Use, reproduction and disclosure by the US Government is
 subject to restrictions as set forth in subparagraphs (a)
 and (c) of the Commercial Computer Software - Restricted
 Rights clause in FAR 52.227-19.
  
 Gaussian, Inc.
 340 Quinnipiac St., Bldg. 40, Wallingford CT 06492
  
  
 ---------------------------------------------------------------
 Warning -- This program may not be used in any manner that
 competes with the business of Gaussian, Inc. or will provide
 assistance to any competitor of Gaussian, Inc.  The licensee
 of this program is prohibited from giving any competitor of
 Gaussian, Inc. access to this program.  By using this program,
 the user acknowledges that Gaussian, Inc. is engaged in the
 business of creating and licensing software in the field of
 computational chemistry and represents and warrants to the
 licensee that it is not a competitor of Gaussian, Inc. and that
 it will not use this program in any manner prohibited above.
 ---------------------------------------------------------------
  

 Cite this work as:
 Gaussian 09, Revision B.01,
 M. J. Frisch, G. W. Trucks, H. B. Schlegel, G. E. Scuseria, 
 M. A. Robb, J. R. Cheeseman, G. Scalmani, V. Barone, B. Mennucci, 
 G. A. Petersson, H. Nakatsuji, M. Caricato, X. Li, H. P. Hratchian, 
 A. F. Izmaylov, J. Bloino, G. Zheng, J. L. Sonnenberg, M. Hada, 
 M. Ehara, K. Toyota, R. Fukuda, J. Hasegawa, M. Ishida, T. Nakajima, 
 Y. Honda, O. Kitao, H. Nakai, T. Vreven, J. A. Montgomery, Jr., 
 J. E. Peralta, F. Ogliaro, M. Bearpark, J. J. Heyd, E. Brothers, 
 K. N. Kudin, V. N. Staroverov, T. Keith, R. Kobayashi, J. Normand, 
 K. Raghavachari, A. Rendell, J. C. Burant, S. S. Iyengar, J. Tomasi, 
 M. Cossi, N. Rega, J. M. Millam, M. Klene, J. E. Knox, J. B. Cross, 
 V. Bakken, C. Adamo, J. Jaramillo, R. Gomperts, R. E. Stratmann, 
 O. Yazyev, A. J. Austin, R. Cammi, C. Pomelli, J. W. Ochterski, 
 R. L. Martin, K. Morokuma, V. G. Zakrzewski, G. A. Voth, 
 P. Salvador, J. J. Dannenberg, S. Dapprich, A. D. Daniels, 
 O. Farkas, J. B. Foresman, J. V. Ortiz, J. Cioslowski, 
 and D. J. Fox, Gaussian, Inc., Wallingford CT, 2010.
 
 ******************************************
 Gaussian 09:  EM64L-G09RevB.01 12-Aug-2010
                30-Apr-2022 
 ******************************************
 %nprocshared=4
 Will use up to    4 processors via shared memory.
 %mem=30gb
 %NoSave
 %Chk=propano.chk
 ----------------------------------------------------------------------
 #MaxDisk=2600gb #B3LyP/6-311g(2d,d,p) fopt freq gfinput iop(6/7=3) tes
 t
 ----------------------------------------------------------------------
 1/14=-1,18=20,19=15,26=3,38=1/1,3;
 2/9=110,12=2,14=103,17=6,18=5,40=1/2;
 3/5=4,6=6,7=700,11=2,16=1,24=10,25=1,30=1,71=1,74=-5/1,2,3;
 4//1;
 5/5=2,38=5/2;
 6/7=3,8=2,9=2,10=2,28=1/1;
 7//1,2,3,16;
 1/14=-1,18=20,19=15/3(2);
 2/9=110/2;
 99//99;
 2/9=110/2;
 3/5=4,6=6,7=700,11=2,16=1,25=1,30=1,71=1,74=-5/1,2,3;
 4/5=5,16=3/1;
 5/5=2,38=5/2;
 7//1,2,3,16;
 1/14=-1,18=20,19=15/3(-5);
 2/9=110/2;
 6/7=3,8=2,9=2,10=2,19=2,28=1/1;
 99/9=1/99;
 -------------------
 prueba para propano
 -------------------
 Symbolic Z-matrix:
 Charge =  0 Multiplicity = 1
 c
 c                    1    cc2
 c                    2    cc3      1    ccc3
 h                    1    hc4      2    hcc4     3    dih4     0
 h                    1    hc5      2    hcc5     3    dih5     0
 h                    1    hc6      2    hcc6     3    dih6     0
 h                    2    hc7      1    hcc7     4    dih7     0
 h                    2    hc8      1    hcc8     4    dih8     0
 h                    3    hc9      2    hcc9     1    dih9     0
 h                    3    hc10     2    hcc10    1    dih10    0
 h                    3    hc11     2    hcc11    1    dih11    0
       Variables:
  cc2                   1.5                      
  cc3                   1.5                      
  ccc3                109.471                    
  hc4                   1.07                     
  hcc4                109.471                    
  dih4                 60.                       
  hc5                   1.07                     
  hcc5                109.471                    
  dih5                -60.                       
  hc6                   1.07                     
  hcc6                109.471                    
  dih6                180.                       
  hc7                   1.07                     
  hcc7                109.471                    
  dih7                180.                       
  hc8                   1.07                     
  hcc8                109.471                    
  dih8                -60.                       
  hc9                   1.07                     
  hcc9                109.471                    
  dih9                180.                       
  hc10                  1.07                     
  hcc10               109.471                    
  dih10               -60.                       
  hc11                  1.07                     
  hcc11               109.471                    
  dih11                60.                       
 
     9 tetrahedral angles replaced.

 GradGradGradGradGradGradGradGradGradGradGradGradGradGradGradGradGradGrad
 Berny optimization.
 Initialization pass.
                           ----------------------------
                           !    Initial Parameters    !
                           ! (Angstroms and Degrees)  !
 --------------------------                            --------------------------
 ! Name  Definition              Value          Derivative Info.                !
 --------------------------------------------------------------------------------
 ! R1    R(1,2)                  1.5            estimate D2E/DX2                !
 ! R2    R(1,4)                  1.07           estimate D2E/DX2                !
 ! R3    R(1,5)                  1.07           estimate D2E/DX2                !
 ! R4    R(1,6)                  1.07           estimate D2E/DX2                !
 ! R5    R(2,3)                  1.5            estimate D2E/DX2                !
 ! R6    R(2,7)                  1.07           estimate D2E/DX2                !
 ! R7    R(2,8)                  1.07           estimate D2E/DX2                !
 ! R8    R(3,9)                  1.07           estimate D2E/DX2                !
 ! R9    R(3,10)                 1.07           estimate D2E/DX2                !
 ! R10   R(3,11)                 1.07           estimate D2E/DX2                !
 ! A1    A(2,1,4)              109.4712         estimate D2E/DX2                !
 ! A2    A(2,1,5)              109.4712         estimate D2E/DX2                !
 ! A3    A(2,1,6)              109.4712         estimate D2E/DX2                !
 ! A4    A(4,1,5)              109.4712         estimate D2E/DX2                !
 ! A5    A(4,1,6)              109.4712         estimate D2E/DX2                !
 ! A6    A(5,1,6)              109.4712         estimate D2E/DX2                !
 ! A7    A(1,2,3)              109.4712         estimate D2E/DX2                !
 ! A8    A(1,2,7)              109.4712         estimate D2E/DX2                !
 ! A9    A(1,2,8)              109.4712         estimate D2E/DX2                !
 ! A10   A(3,2,7)              109.4712         estimate D2E/DX2                !
 ! A11   A(3,2,8)              109.4712         estimate D2E/DX2                !
 ! A12   A(7,2,8)              109.4712         estimate D2E/DX2                !
 ! A13   A(2,3,9)              109.4712         estimate D2E/DX2                !
 ! A14   A(2,3,10)             109.4712         estimate D2E/DX2                !
 ! A15   A(2,3,11)             109.4712         estimate D2E/DX2                !
 ! A16   A(9,3,10)             109.4712         estimate D2E/DX2                !
 ! A17   A(9,3,11)             109.4712         estimate D2E/DX2                !
 ! A18   A(10,3,11)            109.4712         estimate D2E/DX2                !
 ! D1    D(4,1,2,3)             60.0            estimate D2E/DX2                !
 ! D2    D(4,1,2,7)            180.0            estimate D2E/DX2                !
 ! D3    D(4,1,2,8)            -60.0            estimate D2E/DX2                !
 ! D4    D(5,1,2,3)            -60.0            estimate D2E/DX2                !
 ! D5    D(5,1,2,7)             60.0            estimate D2E/DX2                !
 ! D6    D(5,1,2,8)           -180.0            estimate D2E/DX2                !
 ! D7    D(6,1,2,3)            180.0            estimate D2E/DX2                !
 ! D8    D(6,1,2,7)            -60.0            estimate D2E/DX2                !
 ! D9    D(6,1,2,8)             60.0            estimate D2E/DX2                !
 ! D10   D(1,2,3,9)            180.0            estimate D2E/DX2                !
 ! D11   D(1,2,3,10)           -60.0            estimate D2E/DX2                !
 ! D12   D(1,2,3,11)            60.0            estimate D2E/DX2                !
 ! D13   D(7,2,3,9)             60.0            estimate D2E/DX2                !
 ! D14   D(7,2,3,10)           180.0            estimate D2E/DX2                !
 ! D15   D(7,2,3,11)           -60.0            estimate D2E/DX2                !
 ! D16   D(8,2,3,9)            -60.0            estimate D2E/DX2                !
 ! D17   D(8,2,3,10)            60.0            estimate D2E/DX2                !
 ! D18   D(8,2,3,11)           180.0            estimate D2E/DX2                !
 --------------------------------------------------------------------------------
 Trust Radius=3.00D-01 FncErr=1.00D-07 GrdErr=1.00D-06
 Number of steps in this run=     56 maximum allowed number of steps=    100.
 GradGradGradGradGradGradGradGradGradGradGradGradGradGradGradGradGradGrad

                          Input orientation:                          
 ---------------------------------------------------------------------
 Center     Atomic      Atomic             Coordinates (Angstroms)
 Number     Number       Type             X           Y           Z
 ---------------------------------------------------------------------
      1          6           0        0.000000    0.000000    0.000000
      2          6           0        0.000000    0.000000    1.500000
      3          6           0        1.414214    0.000000    2.000000
      4          1           0        0.504403   -0.873651   -0.356667
      5          1           0        0.504403    0.873651   -0.356667
      6          1           0       -1.008805    0.000000   -0.356666
      7          1           0       -0.504403    0.873651    1.856667
      8          1           0       -0.504403   -0.873651    1.856667
      9          1           0        1.414214    0.000000    3.069999
     10          1           0        1.918616   -0.873651    1.643333
     11          1           0        1.918616    0.873651    1.643333
 ---------------------------------------------------------------------
                    Distance matrix (angstroms):
                    1          2          3          4          5
     1  C    0.000000
     2  C    1.500000   0.000000
     3  C    2.449490   1.500000   0.000000
     4  H    1.070000   2.113031   2.672995   0.000000
     5  H    1.070000   2.113031   2.672995   1.747303   0.000000
     6  H    1.069999   2.113030   3.380073   1.747302   1.747302
     7  H    2.113031   1.070000   2.113031   2.994929   2.432393
     8  H    2.113031   1.070000   2.113031   2.432393   2.994929
     9  H    3.380073   2.113030   1.069999   3.651446   3.651446
    10  H    2.672995   2.113031   1.070000   2.449490   3.008831
    11  H    2.672995   2.113031   1.070000   3.008831   2.449490
                    6          7          8          9         10
     6  H    0.000000
     7  H    2.432392   0.000000
     8  H    2.432392   1.747303   0.000000
     9  H    4.196791   2.432392   2.432392   0.000000
    10  H    3.651446   2.994929   2.432393   1.747302   0.000000
    11  H    3.651446   2.432393   2.994929   1.747302   1.747303
                   11
    11  H    0.000000
 Stoichiometry    C3H8
 Framework group  C2V[C2(C),SGV(C2H2),SGV'(H2),X(H4)]
 Deg. of freedom     9
 Full point group                 C2V     NOp   4
 Largest Abelian subgroup         C2V     NOp   4
 Largest concise Abelian subgroup C2V     NOp   4
                         Standard orientation:                         
 ---------------------------------------------------------------------
 Center     Atomic      Atomic             Coordinates (Angstroms)
 Number     Number       Type             X           Y           Z
 ---------------------------------------------------------------------
      1          6           0        0.000000    1.224745   -0.266469
      2          6           0        0.000000    0.000000    0.599556
      3          6           0        0.000000   -1.224745   -0.266469
      4          1           0       -0.873651    1.224745   -0.884234
      5          1           0        0.873651    1.224745   -0.884234
      6          1           0        0.000000    2.098395    0.351295
      7          1           0        0.873651    0.000000    1.217321
      8          1           0       -0.873651    0.000000    1.217321
      9          1           0        0.000000   -2.098395    0.351295
     10          1           0       -0.873651   -1.224745   -0.884234
     11          1           0        0.873651   -1.224745   -0.884234
 ---------------------------------------------------------------------
 Rotational constants (GHZ):     29.6980431      9.0997265      7.9808192
 Standard basis: 6-311G(2d,d,p) (5D, 7F)
 AO basis set in the form of general basis input (Overlap normalization):
      1 0
 S   6 1.00       0.000000000000
      0.4563240000D+04  0.1966650249D-02
      0.6820240000D+03  0.1523060193D-01
      0.1549730000D+03  0.7612690966D-01
      0.4445530000D+02  0.2608010331D+00
      0.1302900000D+02  0.6164620782D+00
      0.1827730000D+01  0.2210060280D+00
 SP   3 1.00       0.000000000000
      0.2096420000D+02  0.1146600807D+00  0.4024869267D-01
      0.4803310000D+01  0.9199996477D+00  0.2375939567D+00
      0.1459330000D+01 -0.3030682134D-02  0.8158538515D+00
 SP   1 1.00       0.000000000000
      0.4834560000D+00  0.1000000000D+01  0.1000000000D+01
 SP   1 1.00       0.000000000000
      0.1455850000D+00  0.1000000000D+01  0.1000000000D+01
 D   1 1.00       0.000000000000
      0.6260000000D+00  0.1000000000D+01
 ****
      2 0
 S   6 1.00       0.000000000000
      0.4563240000D+04  0.1966650249D-02
      0.6820240000D+03  0.1523060193D-01
      0.1549730000D+03  0.7612690966D-01
      0.4445530000D+02  0.2608010331D+00
      0.1302900000D+02  0.6164620782D+00
      0.1827730000D+01  0.2210060280D+00
 SP   3 1.00       0.000000000000
      0.2096420000D+02  0.1146600807D+00  0.4024869267D-01
      0.4803310000D+01  0.9199996477D+00  0.2375939567D+00
      0.1459330000D+01 -0.3030682134D-02  0.8158538515D+00
 SP   1 1.00       0.000000000000
      0.4834560000D+00  0.1000000000D+01  0.1000000000D+01
 SP   1 1.00       0.000000000000
      0.1455850000D+00  0.1000000000D+01  0.1000000000D+01
 D   1 1.00       0.000000000000
      0.6260000000D+00  0.1000000000D+01
 ****
      3 0
 S   6 1.00       0.000000000000
      0.4563240000D+04  0.1966650249D-02
      0.6820240000D+03  0.1523060193D-01
      0.1549730000D+03  0.7612690966D-01
      0.4445530000D+02  0.2608010331D+00
      0.1302900000D+02  0.6164620782D+00
      0.1827730000D+01  0.2210060280D+00
 SP   3 1.00       0.000000000000
      0.2096420000D+02  0.1146600807D+00  0.4024869267D-01
      0.4803310000D+01  0.9199996477D+00  0.2375939567D+00
      0.1459330000D+01 -0.3030682134D-02  0.8158538515D+00
 SP   1 1.00       0.000000000000
      0.4834560000D+00  0.1000000000D+01  0.1000000000D+01
 SP   1 1.00       0.000000000000
      0.1455850000D+00  0.1000000000D+01  0.1000000000D+01
 D   1 1.00       0.000000000000
      0.6260000000D+00  0.1000000000D+01
 ****
      4 0
 S   3 1.00       0.000000000000
      0.3386500000D+02  0.2549381454D-01
      0.5094790000D+01  0.1903731086D+00
      0.1158790000D+01  0.8521614860D+00
 S   1 1.00       0.000000000000
      0.3258400000D+00  0.1000000000D+01
 S   1 1.00       0.000000000000
      0.1027410000D+00  0.1000000000D+01
 P   1 1.00       0.000000000000
      0.7500000000D+00  0.1000000000D+01
 ****
      5 0
 S   3 1.00       0.000000000000
      0.3386500000D+02  0.2549381454D-01
      0.5094790000D+01  0.1903731086D+00
      0.1158790000D+01  0.8521614860D+00
 S   1 1.00       0.000000000000
      0.3258400000D+00  0.1000000000D+01
 S   1 1.00       0.000000000000
      0.1027410000D+00  0.1000000000D+01
 P   1 1.00       0.000000000000
      0.7500000000D+00  0.1000000000D+01
 ****
      6 0
 S   3 1.00       0.000000000000
      0.3386500000D+02  0.2549381454D-01
      0.5094790000D+01  0.1903731086D+00
      0.1158790000D+01  0.8521614860D+00
 S   1 1.00       0.000000000000
      0.3258400000D+00  0.1000000000D+01
 S   1 1.00       0.000000000000
      0.1027410000D+00  0.1000000000D+01
 P   1 1.00       0.000000000000
      0.7500000000D+00  0.1000000000D+01
 ****
      7 0
 S   3 1.00       0.000000000000
      0.3386500000D+02  0.2549381454D-01
      0.5094790000D+01  0.1903731086D+00
      0.1158790000D+01  0.8521614860D+00
 S   1 1.00       0.000000000000
      0.3258400000D+00  0.1000000000D+01
 S   1 1.00       0.000000000000
      0.1027410000D+00  0.1000000000D+01
 P   1 1.00       0.000000000000
      0.7500000000D+00  0.1000000000D+01
 ****
      8 0
 S   3 1.00       0.000000000000
      0.3386500000D+02  0.2549381454D-01
      0.5094790000D+01  0.1903731086D+00
      0.1158790000D+01  0.8521614860D+00
 S   1 1.00       0.000000000000
      0.3258400000D+00  0.1000000000D+01
 S   1 1.00       0.000000000000
      0.1027410000D+00  0.1000000000D+01
 P   1 1.00       0.000000000000
      0.7500000000D+00  0.1000000000D+01
 ****
      9 0
 S   3 1.00       0.000000000000
      0.3386500000D+02  0.2549381454D-01
      0.5094790000D+01  0.1903731086D+00
      0.1158790000D+01  0.8521614860D+00
 S   1 1.00       0.000000000000
      0.3258400000D+00  0.1000000000D+01
 S   1 1.00       0.000000000000
      0.1027410000D+00  0.1000000000D+01
 P   1 1.00       0.000000000000
      0.7500000000D+00  0.1000000000D+01
 ****
     10 0
 S   3 1.00       0.000000000000
      0.3386500000D+02  0.2549381454D-01
      0.5094790000D+01  0.1903731086D+00
      0.1158790000D+01  0.8521614860D+00
 S   1 1.00       0.000000000000
      0.3258400000D+00  0.1000000000D+01
 S   1 1.00       0.000000000000
      0.1027410000D+00  0.1000000000D+01
 P   1 1.00       0.000000000000
      0.7500000000D+00  0.1000000000D+01
 ****
     11 0
 S   3 1.00       0.000000000000
      0.3386500000D+02  0.2549381454D-01
      0.5094790000D+01  0.1903731086D+00
      0.1158790000D+01  0.8521614860D+00
 S   1 1.00       0.000000000000
      0.3258400000D+00  0.1000000000D+01
 S   1 1.00       0.000000000000
      0.1027410000D+00  0.1000000000D+01
 P   1 1.00       0.000000000000
      0.7500000000D+00  0.1000000000D+01
 ****

 There are    38 symmetry adapted basis functions of A1  symmetry.
 There are    14 symmetry adapted basis functions of A2  symmetry.
 There are    21 symmetry adapted basis functions of B1  symmetry.
 There are    29 symmetry adapted basis functions of B2  symmetry.
 Integral buffers will be    131072 words long.
 Raffenetti 2 integral format.
 Two-electron integral symmetry is turned on.
   102 basis functions,   160 primitive gaussians,   105 cartesian basis functions
    13 alpha electrons       13 beta electrons
       nuclear repulsion energy        84.6294887778 Hartrees.
 NAtoms=   11 NActive=   11 NUniq=    5 SFac= 4.00D+00 NAtFMM=   50 NAOKFM=F Big=F
 One-electron integrals computed using PRISM.
 NBasis=   102 RedAO= T  NBF=    38    14    21    29
 NBsUse=   102 1.00D-06 NBFU=    38    14    21    29
 Harris functional with IExCor=  402 diagonalized for initial guess.
 ExpMin= 1.03D-01 ExpMax= 4.56D+03 ExpMxC= 6.82D+02 IAcc=1 IRadAn=         1 AccDes= 0.00D+00
 HarFok:  IExCor=  402 AccDes= 0.00D+00 IRadAn=         1 IDoV= 1
 ScaDFX=  1.000000  1.000000  1.000000  1.000000
 FoFCou: FMM=F IPFlag=           0 FMFlag=      100000 FMFlg1=           0
         NFxFlg=           0 DoJE=T BraDBF=F KetDBF=T FulRan=T
         Omega=  0.000000  0.000000  1.000000  0.000000  0.000000 ICntrl=     500 IOpCl=  0
         NMat0=    1 NMatS0=    1 NMatT0=    0 NMatD0=    1 NMtDS0=    0 NMtDT0=    0
         I1Cent=           4 NGrid=           0.
 Petite list used in FoFCou.
 Initial guess orbital symmetries:
       Occupied  (B2) (A1) (A1) (A1) (B2) (A1) (B1) (A1) (B2) (A2)
                 (B2) (A1) (B1)
       Virtual   (A1) (B1) (A1) (B2) (A1) (B2) (B1) (A1) (A2) (B2)
                 (A1) (A2) (B1) (B2) (A1) (B1) (B2) (A1) (B2) (B1)
                 (A1) (B2) (A1) (B1) (A2) (A1) (B2) (A1) (A1) (A2)
                 (B2) (A1) (B2) (B1) (A2) (A1) (A2) (B1) (A1) (B2)
                 (B1) (A2) (B1) (B2) (A1) (B2) (A1) (B1) (A2) (B1)
                 (B2) (A1) (A1) (B2) (A2) (B2) (A1) (B1) (B2) (A1)
                 (B1) (A1) (A2) (B2) (B1) (B2) (A2) (A1) (A1) (B1)
                 (A1) (B2) (B1) (A2) (A1) (B2) (A1) (B2) (A1) (B2)
                 (A2) (A1) (B1) (B1) (A1) (B2) (A1) (A1) (B2)
 The electronic state of the initial guess is 1-A1.
 Requested convergence on RMS density matrix=1.00D-08 within 128 cycles.
 Requested convergence on MAX density matrix=1.00D-06.
 Requested convergence on             energy=1.00D-06.
 No special actions if energy rises.
 Keep R1 ints in memory in canonical form, NReq=16558661.
 Integral accuracy reduced to 1.0D-05 until final iterations.
 Initial convergence to 1.0D-05 achieved.  Increase integral accuracy.
 SCF Done:  E(RB3LYP) =  -119.174353431     A.U. after   11 cycles
             Convg  =    0.7582D-08             -V/T =  2.0021

 **********************************************************************

            Population analysis using the SCF density.

 **********************************************************************

 Orbital symmetries:
       Occupied  (A1) (B2) (A1) (A1) (B2) (A1) (B1) (A1) (B2) (A2)
                 (A1) (B1) (B2)
       Virtual   (A1) (B2) (B1) (A1) (A1) (B1) (B2) (A2) (A1) (B2)
                 (A2) (A1) (B1) (B2) (A1) (B1) (B2) (A1) (B2) (B1)
                 (B2) (A1) (B1) (A2) (A1) (A1) (B2) (A1) (A1) (B2)
                 (A2) (A1) (B2) (B1) (A2) (A1) (A2) (B1) (A2) (B1)
                 (B1) (B2) (A1) (B2) (A1) (B2) (A1) (B1) (A2) (B2)
                 (B1) (A1) (A1) (B2) (A2) (B2) (A1) (B1) (B2) (A1)
                 (B1) (A1) (A2) (B2) (A2) (A1) (B1) (B2) (A1) (B1)
                 (B2) (A1) (A1) (B1) (A2) (B2) (A1) (B2) (A1) (B2)
                 (A2) (A1) (B1) (B1) (A1) (B2) (A1) (A1) (B2)
 The electronic state is 1-A1.
 Alpha  occ. eigenvalues --  -10.15137 -10.14399 -10.14397  -0.79574  -0.68588
 Alpha  occ. eigenvalues --   -0.58735  -0.47321  -0.44583  -0.40411  -0.38740
 Alpha  occ. eigenvalues --   -0.34113  -0.33547  -0.33342
 Alpha virt. eigenvalues --    0.04673   0.08795   0.08886   0.08904   0.12289
 Alpha virt. eigenvalues --    0.13865   0.14730   0.16110   0.20213   0.25198
 Alpha virt. eigenvalues --    0.28863   0.29680   0.33497   0.34280   0.34534
 Alpha virt. eigenvalues --    0.41580   0.43734   0.56454   0.58332   0.59685
 Alpha virt. eigenvalues --    0.60058   0.60062   0.60687   0.61891   0.62132
 Alpha virt. eigenvalues --    0.62590   0.65019   0.74851   0.87653   0.92844
 Alpha virt. eigenvalues --    0.97057   0.98259   1.19539   1.25905   1.27568
 Alpha virt. eigenvalues --    1.39035   1.45604   1.46008   1.47863   1.49106
 Alpha virt. eigenvalues --    1.49220   1.49491   1.49614   1.53263   1.62793
 Alpha virt. eigenvalues --    1.70082   1.70996   1.71718   1.75767   1.80474
 Alpha virt. eigenvalues --    1.81040   1.88880   1.98969   2.03844   2.03872
 Alpha virt. eigenvalues --    2.07847   2.14269   2.20027   2.26675   2.34240
 Alpha virt. eigenvalues --    2.35786   2.40494   2.42342   2.47596   2.48453
 Alpha virt. eigenvalues --    2.52435   2.52890   2.54429   2.62629   2.63111
 Alpha virt. eigenvalues --    2.64667   2.68690   2.70788   2.72135   2.75054
 Alpha virt. eigenvalues --    2.86914   2.91794   3.06957   3.35003   3.84586
 Alpha virt. eigenvalues --    3.84729   3.89558   3.90067   3.90486   4.18409
 Alpha virt. eigenvalues --    4.35020  23.93450  23.98877  24.01958
     Molecular Orbital Coefficients:
                           1         2         3         4         5
                        (A1)--O   (B2)--O   (A1)--O   (A1)--O   (B2)--O
     Eigenvalues --   -10.15137 -10.14399 -10.14397  -0.79574  -0.68588
   1 1   C  1S          0.01007   0.39802   0.39789  -0.06078  -0.07828
   2        2S          0.00828   0.32748   0.32742  -0.09365  -0.12128
   3        2PX         0.00000   0.00000   0.00000   0.00000   0.00000
   4        2PY        -0.00046   0.00000  -0.00006  -0.02438   0.01151
   5        2PZ         0.00035  -0.00001   0.00004   0.01263   0.00207
   6        3S          0.00058   0.01415   0.01361   0.24087   0.31816
   7        3PX         0.00000   0.00000   0.00000   0.00000   0.00000
   8        3PY         0.00135   0.00051   0.00104  -0.04257   0.01324
   9        3PZ        -0.00092  -0.00041  -0.00068   0.02306   0.00569
  10        4S          0.00485  -0.00632  -0.00394   0.11374   0.18467
  11        4PX         0.00000   0.00000   0.00000   0.00000   0.00000
  12        4PY        -0.00134   0.00181   0.00022  -0.00800   0.01015
  13        4PZ         0.00118   0.00019  -0.00045   0.00222   0.00122
  14        5D 0       -0.00004   0.00003  -0.00003  -0.00104   0.00198
  15        5D+1        0.00000   0.00000   0.00000   0.00000   0.00000
  16        5D-1        0.00091   0.00030   0.00055  -0.00605   0.00080
  17        5D+2        0.00052   0.00029   0.00025  -0.00564   0.00227
  18        5D-2        0.00000   0.00000   0.00000   0.00000   0.00000
  19 2   C  1S          0.56273   0.00000  -0.01428  -0.08065   0.00000
  20        2S          0.46306   0.00000  -0.01176  -0.12436   0.00000
  21        2PX         0.00000   0.00000   0.00000   0.00000   0.00000
  22        2PY         0.00000   0.00066   0.00000   0.00000   0.06754
  23        2PZ        -0.00013   0.00000  -0.00053  -0.02174   0.00000
  24        3S          0.01936   0.00000   0.00001   0.32152   0.00000
  25        3PX         0.00000   0.00000   0.00000   0.00000   0.00000
  26        3PY         0.00000  -0.00155   0.00000   0.00000   0.10654
  27        3PZ         0.00150   0.00000   0.00164  -0.04067   0.00000
  28        4S         -0.01318   0.00000   0.00222   0.17659   0.00000
  29        4PX         0.00000   0.00000   0.00000   0.00000   0.00000
  30        4PY         0.00000   0.00158   0.00000   0.00000   0.03795
  31        4PZ         0.00249   0.00000  -0.00031  -0.01415   0.00000
  32        5D 0        0.00005   0.00000  -0.00003   0.00044   0.00000
  33        5D+1        0.00000   0.00000   0.00000   0.00000   0.00000
  34        5D-1        0.00000   0.00098   0.00000   0.00000  -0.01611
  35        5D+2        0.00094   0.00000   0.00095  -0.00657   0.00000
  36        5D-2        0.00000   0.00000   0.00000   0.00000   0.00000
  37 3   C  1S          0.01007  -0.39802   0.39789  -0.06078   0.07828
  38        2S          0.00828  -0.32748   0.32742  -0.09365   0.12128
  39        2PX         0.00000   0.00000   0.00000   0.00000   0.00000
  40        2PY         0.00046   0.00000   0.00006   0.02438   0.01151
  41        2PZ         0.00035   0.00001   0.00004   0.01263  -0.00207
  42        3S          0.00058  -0.01415   0.01361   0.24087  -0.31816
  43        3PX         0.00000   0.00000   0.00000   0.00000   0.00000
  44        3PY        -0.00135   0.00051  -0.00104   0.04257   0.01324
  45        3PZ        -0.00092   0.00041  -0.00068   0.02306  -0.00569
  46        4S          0.00485   0.00632  -0.00394   0.11374  -0.18467
  47        4PX         0.00000   0.00000   0.00000   0.00000   0.00000
  48        4PY         0.00134   0.00181  -0.00022   0.00800   0.01015
  49        4PZ         0.00118  -0.00019  -0.00045   0.00222  -0.00122
  50        5D 0       -0.00004  -0.00003  -0.00003  -0.00104  -0.00198
  51        5D+1        0.00000   0.00000   0.00000   0.00000   0.00000
  52        5D-1       -0.00091   0.00030  -0.00055   0.00605   0.00080
  53        5D+2        0.00052  -0.00029   0.00025  -0.00564  -0.00227
  54        5D-2        0.00000   0.00000   0.00000   0.00000   0.00000
  55 4   H  1S         -0.00011  -0.00002   0.00004   0.04032   0.06239
  56        2S         -0.00082  -0.00153  -0.00237   0.04519   0.07320
  57        3S          0.00020   0.00130   0.00098   0.00054   0.00831
  58        4PX        -0.00031  -0.00122  -0.00137   0.00701   0.00956
  59        4PY        -0.00014  -0.00015  -0.00003  -0.00129   0.00053
  60        4PZ        -0.00014  -0.00090  -0.00090   0.00571   0.00701
  61 5   H  1S         -0.00011  -0.00002   0.00004   0.04032   0.06239
  62        2S         -0.00082  -0.00153  -0.00237   0.04519   0.07320
  63        3S          0.00020   0.00130   0.00098   0.00054   0.00831
  64        4PX         0.00031   0.00122   0.00137  -0.00701  -0.00956
  65        4PY        -0.00014  -0.00015  -0.00003  -0.00129   0.00053
  66        4PZ        -0.00014  -0.00090  -0.00090   0.00571   0.00701
  67 6   H  1S         -0.00006   0.00008   0.00001   0.03691   0.06996
  68        2S         -0.00128  -0.00228  -0.00231   0.04271   0.07939
  69        3S         -0.00018   0.00050   0.00121   0.00237   0.00768
  70        4PX         0.00000   0.00000   0.00000   0.00000   0.00000
  71        4PY         0.00039   0.00125   0.00134  -0.00802  -0.01014
  72        4PZ         0.00032   0.00095   0.00105  -0.00377  -0.00739
  73 7   H  1S         -0.00010   0.00000  -0.00016   0.05136   0.00000
  74        2S         -0.00244   0.00000  -0.00094   0.05583   0.00000
  75        3S          0.00157   0.00000   0.00011   0.00041   0.00000
  76        4PX         0.00195   0.00000   0.00043  -0.00914   0.00000
  77        4PY         0.00000   0.00010   0.00000   0.00000   0.00374
  78        4PZ         0.00118   0.00000   0.00019  -0.00749   0.00000
  79 8   H  1S         -0.00010   0.00000  -0.00016   0.05136   0.00000
  80        2S         -0.00244   0.00000  -0.00094   0.05583   0.00000
  81        3S          0.00157   0.00000   0.00011   0.00041   0.00000
  82        4PX        -0.00195   0.00000  -0.00043   0.00914   0.00000
  83        4PY         0.00000   0.00010   0.00000   0.00000   0.00374
  84        4PZ         0.00118   0.00000   0.00019  -0.00749   0.00000
  85 9   H  1S         -0.00006  -0.00008   0.00001   0.03691  -0.06996
  86        2S         -0.00128   0.00228  -0.00231   0.04271  -0.07939
  87        3S         -0.00018  -0.00050   0.00121   0.00237  -0.00768
  88        4PX         0.00000   0.00000   0.00000   0.00000   0.00000
  89        4PY        -0.00039   0.00125  -0.00134   0.00802  -0.01014
  90        4PZ         0.00032  -0.00095   0.00105  -0.00377   0.00739
  91 10  H  1S         -0.00011   0.00002   0.00004   0.04032  -0.06239
  92        2S         -0.00082   0.00153  -0.00237   0.04519  -0.07320
  93        3S          0.00020  -0.00130   0.00098   0.00054  -0.00831
  94        4PX        -0.00031   0.00122  -0.00137   0.00701  -0.00956
  95        4PY         0.00014  -0.00015   0.00003   0.00129   0.00053
  96        4PZ        -0.00014   0.00090  -0.00090   0.00571  -0.00701
  97 11  H  1S         -0.00011   0.00002   0.00004   0.04032  -0.06239
  98        2S         -0.00082   0.00153  -0.00237   0.04519  -0.07320
  99        3S          0.00020  -0.00130   0.00098   0.00054  -0.00831
 100        4PX         0.00031  -0.00122   0.00137  -0.00701   0.00956
 101        4PY         0.00014  -0.00015   0.00003   0.00129   0.00053
 102        4PZ        -0.00014   0.00090  -0.00090   0.00571  -0.00701
                           6         7         8         9        10
                        (A1)--O   (B1)--O   (A1)--O   (B2)--O   (A2)--O
     Eigenvalues --    -0.58735  -0.47321  -0.44583  -0.40411  -0.38740
   1 1   C  1S          0.04405   0.00000  -0.00768   0.00369   0.00000
   2        2S          0.06852   0.00000  -0.01202   0.00580   0.00000
   3        2PX         0.00000   0.10525   0.00000   0.00000   0.15081
   4        2PY        -0.03863   0.00000   0.12398   0.00451   0.00000
   5        2PZ         0.04999   0.00000   0.05649   0.14563   0.00000
   6        3S         -0.18062   0.00000   0.03138  -0.01451   0.00000
   7        3PX         0.00000   0.15151   0.00000   0.00000   0.21424
   8        3PY        -0.05709   0.00000   0.17736   0.00641   0.00000
   9        3PZ         0.07351   0.00000   0.08014   0.20967   0.00000
  10        4S         -0.12534   0.00000   0.04416  -0.03068   0.00000
  11        4PX         0.00000   0.08210   0.00000   0.00000   0.15698
  12        4PY        -0.02089   0.00000   0.10541   0.00654   0.00000
  13        4PZ         0.03636   0.00000   0.05863   0.13165   0.00000
  14        5D 0        0.00286   0.00000   0.00597   0.00418   0.00000
  15        5D+1        0.00000  -0.00489   0.00000   0.00000  -0.01715
  16        5D-1       -0.01119   0.00000   0.01119  -0.00007   0.00000
  17        5D+2       -0.00629   0.00000  -0.00034  -0.01561   0.00000
  18        5D-2        0.00000  -0.00934   0.00000   0.00000   0.00019
  19 2   C  1S         -0.07227   0.00000   0.01379   0.00000   0.00000
  20        2S         -0.11265   0.00000   0.02166   0.00000   0.00000
  21        2PX         0.00000   0.14188   0.00000   0.00000   0.00000
  22        2PY         0.00000   0.00000   0.00000   0.10880   0.00000
  23        2PZ         0.06363   0.00000   0.10535   0.00000   0.00000
  24        3S          0.30237   0.00000  -0.06065   0.00000   0.00000
  25        3PX         0.00000   0.20665   0.00000   0.00000   0.00000
  26        3PY         0.00000   0.00000   0.00000   0.15988   0.00000
  27        3PZ         0.08989   0.00000   0.15401   0.00000   0.00000
  28        4S          0.20370   0.00000  -0.05978   0.00000   0.00000
  29        4PX         0.00000   0.14164   0.00000   0.00000   0.00000
  30        4PY         0.00000   0.00000   0.00000   0.10953   0.00000
  31        4PZ         0.04418   0.00000   0.09921   0.00000   0.00000
  32        5D 0       -0.00249   0.00000  -0.01475   0.00000   0.00000
  33        5D+1        0.00000   0.00484   0.00000   0.00000   0.00000
  34        5D-1        0.00000   0.00000   0.00000  -0.00120   0.00000
  35        5D+2        0.01070   0.00000  -0.00106   0.00000   0.00000
  36        5D-2        0.00000   0.00000   0.00000   0.00000   0.01868
  37 3   C  1S          0.04405   0.00000  -0.00768  -0.00369   0.00000
  38        2S          0.06852   0.00000  -0.01202  -0.00580   0.00000
  39        2PX         0.00000   0.10525   0.00000   0.00000  -0.15081
  40        2PY         0.03863   0.00000  -0.12398   0.00451   0.00000
  41        2PZ         0.04999   0.00000   0.05649  -0.14563   0.00000
  42        3S         -0.18062   0.00000   0.03138   0.01451   0.00000
  43        3PX         0.00000   0.15151   0.00000   0.00000  -0.21424
  44        3PY         0.05709   0.00000  -0.17736   0.00641   0.00000
  45        3PZ         0.07351   0.00000   0.08014  -0.20967   0.00000
  46        4S         -0.12534   0.00000   0.04416   0.03068   0.00000
  47        4PX         0.00000   0.08210   0.00000   0.00000  -0.15698
  48        4PY         0.02089   0.00000  -0.10541   0.00654   0.00000
  49        4PZ         0.03636   0.00000   0.05863  -0.13165   0.00000
  50        5D 0        0.00286   0.00000   0.00597  -0.00418   0.00000
  51        5D+1        0.00000  -0.00489   0.00000   0.00000   0.01715
  52        5D-1        0.01119   0.00000  -0.01119  -0.00007   0.00000
  53        5D+2       -0.00629   0.00000  -0.00034   0.01561   0.00000
  54        5D-2        0.00000   0.00934   0.00000   0.00000   0.00019
  55 4   H  1S         -0.06082  -0.06890  -0.01882  -0.07598  -0.10806
  56        2S         -0.07258  -0.08856  -0.02239  -0.10174  -0.14240
  57        3S         -0.01617  -0.03671  -0.00980  -0.05010  -0.07441
  58        4PX        -0.00802  -0.00271  -0.00252  -0.00943  -0.00377
  59        4PY        -0.00172   0.00118   0.00783  -0.00020  -0.00084
  60        4PZ        -0.00293  -0.00697   0.00145   0.00231  -0.00935
  61 5   H  1S         -0.06082   0.06890  -0.01882  -0.07598   0.10806
  62        2S         -0.07258   0.08856  -0.02239  -0.10174   0.14240
  63        3S         -0.01617   0.03671  -0.00980  -0.05010   0.07441
  64        4PX         0.00802  -0.00271   0.00252   0.00943  -0.00377
  65        4PY        -0.00172  -0.00118   0.00783  -0.00020   0.00084
  66        4PZ        -0.00293   0.00697   0.00145   0.00231   0.00935
  67 6   H  1S         -0.04215   0.00000   0.11785   0.07232   0.00000
  68        2S         -0.05393   0.00000   0.15033   0.09642   0.00000
  69        3S         -0.01361   0.00000   0.06323   0.05139   0.00000
  70        4PX         0.00000   0.00672   0.00000   0.00000   0.00937
  71        4PY         0.00314   0.00000  -0.00844  -0.00857   0.00000
  72        4PZ         0.00662   0.00000  -0.00695   0.00313   0.00000
  73 7   H  1S          0.09048   0.09087   0.03460   0.00000   0.00000
  74        2S          0.10889   0.10534   0.04613   0.00000   0.00000
  75        3S          0.02199   0.03647   0.01820   0.00000   0.00000
  76        4PX        -0.01232  -0.00331  -0.00500   0.00000   0.00000
  77        4PY         0.00000   0.00000   0.00000   0.00685   0.00090
  78        4PZ        -0.00538  -0.00842   0.00230   0.00000   0.00000
  79 8   H  1S          0.09048  -0.09087   0.03460   0.00000   0.00000
  80        2S          0.10889  -0.10534   0.04613   0.00000   0.00000
  81        3S          0.02199  -0.03647   0.01820   0.00000   0.00000
  82        4PX         0.01232  -0.00331   0.00500   0.00000   0.00000
  83        4PY         0.00000   0.00000   0.00000   0.00685  -0.00090
  84        4PZ        -0.00538   0.00842   0.00230   0.00000   0.00000
  85 9   H  1S         -0.04215   0.00000   0.11785  -0.07232   0.00000
  86        2S         -0.05393   0.00000   0.15033  -0.09642   0.00000
  87        3S         -0.01361   0.00000   0.06323  -0.05139   0.00000
  88        4PX         0.00000   0.00672   0.00000   0.00000  -0.00937
  89        4PY        -0.00314   0.00000   0.00844  -0.00857   0.00000
  90        4PZ         0.00662   0.00000  -0.00695  -0.00313   0.00000
  91 10  H  1S         -0.06082  -0.06890  -0.01882   0.07598   0.10806
  92        2S         -0.07258  -0.08856  -0.02239   0.10174   0.14240
  93        3S         -0.01617  -0.03671  -0.00980   0.05010   0.07441
  94        4PX        -0.00802  -0.00271  -0.00252   0.00943   0.00377
  95        4PY         0.00172  -0.00118  -0.00783  -0.00020  -0.00084
  96        4PZ        -0.00293  -0.00697   0.00145  -0.00231   0.00935
  97 11  H  1S         -0.06082   0.06890  -0.01882   0.07598  -0.10806
  98        2S         -0.07258   0.08856  -0.02239   0.10174  -0.14240
  99        3S         -0.01617   0.03671  -0.00980   0.05010  -0.07441
 100        4PX         0.00802  -0.00271   0.00252  -0.00943   0.00377
 101        4PY         0.00172   0.00118  -0.00783  -0.00020   0.00084
 102        4PZ        -0.00293   0.00697   0.00145  -0.00231  -0.00935
                          11        12        13        14        15
                        (A1)--O   (B1)--O   (B2)--O   (A1)--V   (B2)--V
     Eigenvalues --    -0.34113  -0.33547  -0.33342   0.04673   0.08795
   1 1   C  1S          0.01007   0.00000  -0.01117  -0.03106  -0.03808
   2        2S          0.01599   0.00000  -0.01774  -0.04832  -0.05941
   3        2PX         0.00000  -0.09565   0.00000   0.00000   0.00000
   4        2PY         0.03226   0.00000  -0.15385   0.03870   0.05325
   5        2PZ        -0.12294   0.00000   0.00402  -0.03772   0.00864
   6        3S         -0.04838   0.00000   0.05215   0.08863   0.11535
   7        3PX         0.00000  -0.13128   0.00000   0.00000   0.00000
   8        3PY         0.05064   0.00000  -0.22101   0.04741   0.03856
   9        3PZ        -0.17338   0.00000   0.00897  -0.04701   0.00912
  10        4S         -0.03895   0.00000   0.06274   1.11110   1.43683
  11        4PX         0.00000  -0.09390   0.00000   0.00000   0.00000
  12        4PY         0.02182   0.00000  -0.16851   0.15626   0.31799
  13        4PZ        -0.12868   0.00000   0.00066  -0.23601   0.08889
  14        5D 0        0.00793   0.00000   0.00539   0.00386  -0.00291
  15        5D+1        0.00000   0.02272   0.00000   0.00000   0.00000
  16        5D-1       -0.00128   0.00000  -0.02027  -0.00703   0.00084
  17        5D+2        0.01989   0.00000   0.00758  -0.00082  -0.00290
  18        5D-2        0.00000  -0.00796   0.00000   0.00000   0.00000
  19 2   C  1S          0.00641   0.00000   0.00000  -0.02660   0.00000
  20        2S          0.01025   0.00000   0.00000  -0.04135   0.00000
  21        2PX         0.00000   0.15228   0.00000   0.00000   0.00000
  22        2PY         0.00000   0.00000   0.15652   0.00000  -0.03432
  23        2PZ         0.16194   0.00000   0.00000   0.06140   0.00000
  24        3S         -0.03384   0.00000   0.00000   0.08792   0.00000
  25        3PX         0.00000   0.21238   0.00000   0.00000   0.00000
  26        3PY         0.00000   0.00000   0.22836   0.00000  -0.05877
  27        3PZ         0.23259   0.00000   0.00000   0.07304   0.00000
  28        4S         -0.03558   0.00000   0.00000   0.88215   0.00000
  29        4PX         0.00000   0.15536   0.00000   0.00000   0.00000
  30        4PY         0.00000   0.00000   0.15334   0.00000  -0.26201
  31        4PZ         0.17661   0.00000   0.00000   0.40998   0.00000
  32        5D 0        0.00865   0.00000   0.00000   0.00183   0.00000
  33        5D+1        0.00000   0.03173   0.00000   0.00000   0.00000
  34        5D-1        0.00000   0.00000  -0.02434   0.00000  -0.00610
  35        5D+2        0.02765   0.00000   0.00000  -0.00272   0.00000
  36        5D-2        0.00000   0.00000   0.00000   0.00000   0.00000
  37 3   C  1S          0.01007   0.00000   0.01117  -0.03106   0.03808
  38        2S          0.01599   0.00000   0.01774  -0.04832   0.05941
  39        2PX         0.00000  -0.09565   0.00000   0.00000   0.00000
  40        2PY        -0.03226   0.00000  -0.15385  -0.03870   0.05325
  41        2PZ        -0.12294   0.00000  -0.00402  -0.03772  -0.00864
  42        3S         -0.04838   0.00000  -0.05215   0.08863  -0.11535
  43        3PX         0.00000  -0.13128   0.00000   0.00000   0.00000
  44        3PY        -0.05064   0.00000  -0.22101  -0.04741   0.03856
  45        3PZ        -0.17338   0.00000  -0.00897  -0.04701  -0.00912
  46        4S         -0.03895   0.00000  -0.06274   1.11110  -1.43683
  47        4PX         0.00000  -0.09390   0.00000   0.00000   0.00000
  48        4PY        -0.02182   0.00000  -0.16851  -0.15626   0.31799
  49        4PZ        -0.12868   0.00000  -0.00066  -0.23601  -0.08889
  50        5D 0        0.00793   0.00000  -0.00539   0.00386   0.00291
  51        5D+1        0.00000   0.02272   0.00000   0.00000   0.00000
  52        5D-1        0.00128   0.00000  -0.02027   0.00703   0.00084
  53        5D+2        0.01989   0.00000  -0.00758  -0.00082   0.00290
  54        5D-2        0.00000   0.00796   0.00000   0.00000   0.00000
  55 4   H  1S          0.06048   0.08083   0.01094   0.00071  -0.01629
  56        2S          0.08750   0.12293   0.01249  -0.03352  -0.00898
  57        3S          0.06247   0.08733   0.00599  -0.48124  -0.54749
  58        4PX         0.00631   0.00232   0.00076   0.00725   0.00497
  59        4PY         0.00117  -0.00114  -0.00953   0.00493  -0.00474
  60        4PZ        -0.00355   0.00591   0.00086   0.00138   0.00290
  61 5   H  1S          0.06048  -0.08083   0.01094   0.00071  -0.01629
  62        2S          0.08750  -0.12293   0.01249  -0.03352  -0.00898
  63        3S          0.06247  -0.08733   0.00599  -0.48124  -0.54749
  64        4PX        -0.00631   0.00232  -0.00076  -0.00725  -0.00497
  65        4PY         0.00117   0.00114  -0.00953   0.00493  -0.00474
  66        4PZ        -0.00355  -0.00591   0.00086   0.00138   0.00290
  67 6   H  1S         -0.05550   0.00000  -0.10910  -0.01438   0.00915
  68        2S         -0.07841   0.00000  -0.15789  -0.03314   0.06254
  69        3S         -0.04906   0.00000  -0.10508  -0.45601  -1.02926
  70        4PX         0.00000  -0.00609   0.00000   0.00000   0.00000
  71        4PY         0.00809   0.00000   0.00147  -0.00328  -0.01233
  72        4PZ        -0.00326   0.00000   0.00875  -0.00572  -0.01153
  73 7   H  1S          0.08458   0.12266   0.00000   0.00027   0.00000
  74        2S          0.12410   0.18095   0.00000  -0.01370   0.00000
  75        3S          0.07682   0.12241   0.00000  -0.57331   0.00000
  76        4PX        -0.00875  -0.00357   0.00000  -0.00910   0.00000
  77        4PY         0.00000   0.00000   0.00932   0.00000  -0.00912
  78        4PZ         0.00350  -0.00943   0.00000  -0.00279   0.00000
  79 8   H  1S          0.08458  -0.12266   0.00000   0.00027   0.00000
  80        2S          0.12410  -0.18095   0.00000  -0.01370   0.00000
  81        3S          0.07682  -0.12241   0.00000  -0.57331   0.00000
  82        4PX         0.00875  -0.00357   0.00000   0.00910   0.00000
  83        4PY         0.00000   0.00000   0.00932   0.00000  -0.00912
  84        4PZ         0.00350   0.00943   0.00000  -0.00279   0.00000
  85 9   H  1S         -0.05550   0.00000   0.10910  -0.01438  -0.00915
  86        2S         -0.07841   0.00000   0.15789  -0.03314  -0.06254
  87        3S         -0.04906   0.00000   0.10508  -0.45601   1.02926
  88        4PX         0.00000  -0.00609   0.00000   0.00000   0.00000
  89        4PY        -0.00809   0.00000   0.00147   0.00328  -0.01233
  90        4PZ        -0.00326   0.00000  -0.00875  -0.00572   0.01153
  91 10  H  1S          0.06048   0.08083  -0.01094   0.00071   0.01629
  92        2S          0.08750   0.12293  -0.01249  -0.03352   0.00898
  93        3S          0.06247   0.08733  -0.00599  -0.48124   0.54749
  94        4PX         0.00631   0.00232  -0.00076   0.00725  -0.00497
  95        4PY        -0.00117   0.00114  -0.00953  -0.00493  -0.00474
  96        4PZ        -0.00355   0.00591  -0.00086   0.00138  -0.00290
  97 11  H  1S          0.06048  -0.08083  -0.01094   0.00071   0.01629
  98        2S          0.08750  -0.12293  -0.01249  -0.03352   0.00898
  99        3S          0.06247  -0.08733  -0.00599  -0.48124   0.54749
 100        4PX        -0.00631   0.00232   0.00076  -0.00725   0.00497
 101        4PY        -0.00117  -0.00114  -0.00953  -0.00493  -0.00474
 102        4PZ        -0.00355  -0.00591  -0.00086   0.00138  -0.00290
                          16        17        18        19        20
                        (B1)--V   (A1)--V   (A1)--V   (B1)--V   (B2)--V
     Eigenvalues --     0.08886   0.08904   0.12289   0.13865   0.14730
   1 1   C  1S          0.00000   0.01489   0.02050   0.00000  -0.01465
   2        2S          0.00000   0.02316   0.03180   0.00000  -0.02289
   3        2PX        -0.09541   0.00000   0.00000   0.07646   0.00000
   4        2PY         0.00000   0.03091  -0.04710   0.00000  -0.07615
   5        2PZ         0.00000   0.07596  -0.06350   0.00000  -0.08963
   6        3S          0.00000  -0.03991  -0.05229   0.00000   0.04239
   7        3PX        -0.08492   0.00000   0.00000   0.07358   0.00000
   8        3PY         0.00000   0.03573  -0.04830   0.00000  -0.06394
   9        3PZ         0.00000   0.06076  -0.05753   0.00000  -0.08369
  10        4S          0.00000  -0.57946  -0.67889   0.00000   0.50366
  11        4PX        -0.46280   0.00000   0.00000   0.85525   0.00000
  12        4PY         0.00000   0.24668  -0.32141   0.00000  -0.60120
  13        4PZ         0.00000   0.43395  -0.60289   0.00000  -0.60726
  14        5D 0        0.00000   0.00477   0.00051   0.00000  -0.00240
  15        5D+1       -0.02132   0.00000   0.00000   0.00215   0.00000
  16        5D-1        0.00000  -0.00919   0.01032   0.00000   0.01692
  17        5D+2        0.00000   0.01632  -0.01941   0.00000  -0.01581
  18        5D-2        0.00698   0.00000   0.00000   0.01324   0.00000
  19 2   C  1S          0.00000  -0.03143  -0.03371   0.00000   0.00000
  20        2S          0.00000  -0.04892  -0.05380   0.00000   0.00000
  21        2PX        -0.09655   0.00000   0.00000  -0.13519   0.00000
  22        2PY         0.00000   0.00000   0.00000   0.00000  -0.03594
  23        2PZ         0.00000   0.05384   0.03230   0.00000   0.00000
  24        3S          0.00000   0.09210   0.11480   0.00000   0.00000
  25        3PX        -0.08850   0.00000   0.00000  -0.11905   0.00000
  26        3PY         0.00000   0.00000   0.00000   0.00000  -0.07353
  27        3PZ         0.00000   0.03949  -0.01413   0.00000   0.00000
  28        4S          0.00000   1.12700   1.38611   0.00000   0.00000
  29        4PX        -0.60120   0.00000   0.00000  -1.36934   0.00000
  30        4PY         0.00000   0.00000   0.00000   0.00000  -0.12616
  31        4PZ         0.00000   0.21248   0.48233   0.00000   0.00000
  32        5D 0        0.00000  -0.01634   0.01532   0.00000   0.00000
  33        5D+1        0.02836   0.00000   0.00000   0.01151   0.00000
  34        5D-1        0.00000   0.00000   0.00000   0.00000  -0.01089
  35        5D+2        0.00000  -0.01606  -0.00104   0.00000   0.00000
  36        5D-2        0.00000   0.00000   0.00000   0.00000   0.00000
  37 3   C  1S          0.00000   0.01489   0.02050   0.00000   0.01465
  38        2S          0.00000   0.02316   0.03180   0.00000   0.02289
  39        2PX        -0.09541   0.00000   0.00000   0.07646   0.00000
  40        2PY         0.00000  -0.03091   0.04710   0.00000  -0.07615
  41        2PZ         0.00000   0.07596  -0.06350   0.00000   0.08963
  42        3S          0.00000  -0.03991  -0.05229   0.00000  -0.04239
  43        3PX        -0.08492   0.00000   0.00000   0.07358   0.00000
  44        3PY         0.00000  -0.03573   0.04830   0.00000  -0.06394
  45        3PZ         0.00000   0.06076  -0.05753   0.00000   0.08369
  46        4S          0.00000  -0.57946  -0.67889   0.00000  -0.50366
  47        4PX        -0.46280   0.00000   0.00000   0.85525   0.00000
  48        4PY         0.00000  -0.24668   0.32141   0.00000  -0.60120
  49        4PZ         0.00000   0.43395  -0.60289   0.00000   0.60726
  50        5D 0        0.00000   0.00477   0.00051   0.00000   0.00240
  51        5D+1       -0.02132   0.00000   0.00000   0.00215   0.00000
  52        5D-1        0.00000   0.00919  -0.01032   0.00000   0.01692
  53        5D+2        0.00000   0.01632  -0.01941   0.00000   0.01581
  54        5D-2       -0.00698   0.00000   0.00000  -0.01324   0.00000
  55 4   H  1S         -0.01026   0.00867  -0.00935  -0.00358  -0.00874
  56        2S          0.03982  -0.01587  -0.06088   0.07008   0.02319
  57        3S         -0.81816   0.72772  -0.17710   0.83329  -0.99392
  58        4PX         0.01802  -0.01273   0.00728  -0.00752   0.01390
  59        4PY        -0.00006   0.00145  -0.00109  -0.00737  -0.00514
  60        4PZ         0.01483  -0.00943  -0.00317  -0.00593   0.00742
  61 5   H  1S          0.01026   0.00867  -0.00935   0.00358  -0.00874
  62        2S         -0.03982  -0.01587  -0.06088  -0.07008   0.02319
  63        3S          0.81816   0.72772  -0.17710  -0.83329  -0.99392
  64        4PX         0.01802   0.01273  -0.00728  -0.00752  -0.01390
  65        4PY         0.00006   0.00145  -0.00109   0.00737  -0.00514
  66        4PZ        -0.01483  -0.00943  -0.00317   0.00593   0.00742
  67 6   H  1S          0.00000  -0.00512   0.02399   0.00000   0.01928
  68        2S          0.00000   0.00245   0.04998   0.00000   0.02340
  69        3S          0.00000  -0.56731   1.39554   0.00000   1.36196
  70        4PX        -0.00212   0.00000   0.00000   0.00672   0.00000
  71        4PY         0.00000  -0.01114   0.01990   0.00000   0.02106
  72        4PZ         0.00000  -0.00939   0.01008   0.00000   0.01521
  73 7   H  1S          0.02425  -0.01724  -0.00333  -0.00511   0.00000
  74        2S          0.02836   0.02423  -0.03835   0.04881   0.00000
  75        3S          0.99633  -0.86624  -0.87000   1.55482   0.00000
  76        4PX         0.01634  -0.01033  -0.00976   0.01762   0.00000
  77        4PY         0.00000   0.00000   0.00000   0.00000  -0.00367
  78        4PZ         0.01110  -0.01324  -0.00400   0.01037   0.00000
  79 8   H  1S         -0.02425  -0.01724  -0.00333   0.00511   0.00000
  80        2S         -0.02836   0.02423  -0.03835  -0.04881   0.00000
  81        3S         -0.99633  -0.86624  -0.87000  -1.55482   0.00000
  82        4PX         0.01634   0.01033   0.00976   0.01762   0.00000
  83        4PY         0.00000   0.00000   0.00000   0.00000  -0.00367
  84        4PZ        -0.01110  -0.01324  -0.00400  -0.01037   0.00000
  85 9   H  1S          0.00000  -0.00512   0.02399   0.00000  -0.01928
  86        2S          0.00000   0.00245   0.04998   0.00000  -0.02340
  87        3S          0.00000  -0.56731   1.39554   0.00000  -1.36196
  88        4PX        -0.00212   0.00000   0.00000   0.00672   0.00000
  89        4PY         0.00000   0.01114  -0.01990   0.00000   0.02106
  90        4PZ         0.00000  -0.00939   0.01008   0.00000  -0.01521
  91 10  H  1S         -0.01026   0.00867  -0.00935  -0.00358   0.00874
  92        2S          0.03982  -0.01587  -0.06088   0.07008  -0.02319
  93        3S         -0.81816   0.72772  -0.17710   0.83329   0.99392
  94        4PX         0.01802  -0.01273   0.00728  -0.00752  -0.01390
  95        4PY         0.00006  -0.00145   0.00109   0.00737  -0.00514
  96        4PZ         0.01483  -0.00943  -0.00317  -0.00593  -0.00742
  97 11  H  1S          0.01026   0.00867  -0.00935   0.00358   0.00874
  98        2S         -0.03982  -0.01587  -0.06088  -0.07008  -0.02319
  99        3S          0.81816   0.72772  -0.17710  -0.83329   0.99392
 100        4PX         0.01802   0.01273  -0.00728  -0.00752   0.01390
 101        4PY        -0.00006  -0.00145   0.00109  -0.00737  -0.00514
 102        4PZ        -0.01483  -0.00943  -0.00317   0.00593  -0.00742
                          21        22        23        24        25
                        (A2)--V   (A1)--V   (B2)--V   (A2)--V   (A1)--V
     Eigenvalues --     0.16110   0.20213   0.25198   0.28863   0.29680
   1 1   C  1S          0.00000   0.01085   0.01266   0.00000  -0.00459
   2        2S          0.00000   0.01589   0.02014   0.00000  -0.00587
   3        2PX         0.12132   0.00000   0.00000  -0.00072   0.00000
   4        2PY         0.00000   0.05487   0.09428   0.00000  -0.04567
   5        2PZ         0.00000  -0.04700  -0.08687   0.00000  -0.00022
   6        3S          0.00000   0.01964  -0.02692   0.00000   0.00275
   7        3PX         0.11004   0.00000   0.00000   0.04458   0.00000
   8        3PY         0.00000   0.08103   0.12265   0.00000   0.06096
   9        3PZ         0.00000  -0.05098  -0.09616   0.00000   0.01709
  10        4S          0.00000  -1.54383  -1.13984   0.00000  -0.32854
  11        4PX         0.87821   0.00000   0.00000   1.06408   0.00000
  12        4PY         0.00000   1.47158   0.94826   0.00000  -0.02572
  13        4PZ         0.00000  -0.36740  -1.34344   0.00000   0.96961
  14        5D 0        0.00000  -0.01522   0.02013   0.00000   0.00576
  15        5D+1        0.03086   0.00000   0.00000  -0.01923   0.00000
  16        5D-1        0.00000  -0.01488  -0.03917   0.00000   0.01808
  17        5D+2        0.00000  -0.01759  -0.01025   0.00000   0.01199
  18        5D-2       -0.00653   0.00000   0.00000   0.01430   0.00000
  19 2   C  1S          0.00000  -0.03368   0.00000   0.00000   0.01120
  20        2S          0.00000  -0.05186   0.00000   0.00000   0.02278
  21        2PX         0.00000   0.00000   0.00000   0.00000   0.00000
  22        2PY         0.00000   0.00000   0.17431   0.00000   0.00000
  23        2PZ         0.00000  -0.12847   0.00000   0.00000   0.09769
  24        3S          0.00000   0.03788   0.00000   0.00000  -0.14172
  25        3PX         0.00000   0.00000   0.00000   0.00000   0.00000
  26        3PY         0.00000   0.00000   0.20066   0.00000   0.00000
  27        3PZ         0.00000  -0.14064   0.00000   0.00000   0.25015
  28        4S          0.00000   2.75532   0.00000   0.00000  -0.47871
  29        4PX         0.00000   0.00000   0.00000   0.00000   0.00000
  30        4PY         0.00000   0.00000   2.46570   0.00000   0.00000
  31        4PZ         0.00000  -2.16504   0.00000   0.00000  -0.60891
  32        5D 0        0.00000  -0.00602   0.00000   0.00000  -0.01412
  33        5D+1        0.00000   0.00000   0.00000   0.00000   0.00000
  34        5D-1        0.00000   0.00000   0.05126   0.00000   0.00000
  35        5D+2        0.00000   0.02554   0.00000   0.00000  -0.01973
  36        5D-2        0.02526   0.00000   0.00000   0.01668   0.00000
  37 3   C  1S          0.00000   0.01085  -0.01266   0.00000  -0.00459
  38        2S          0.00000   0.01589  -0.02014   0.00000  -0.00587
  39        2PX        -0.12132   0.00000   0.00000   0.00072   0.00000
  40        2PY         0.00000  -0.05487   0.09428   0.00000   0.04567
  41        2PZ         0.00000  -0.04700   0.08687   0.00000  -0.00022
  42        3S          0.00000   0.01964   0.02692   0.00000   0.00275
  43        3PX        -0.11004   0.00000   0.00000  -0.04458   0.00000
  44        3PY         0.00000  -0.08103   0.12265   0.00000  -0.06096
  45        3PZ         0.00000  -0.05098   0.09616   0.00000   0.01709
  46        4S          0.00000  -1.54383   1.13984   0.00000  -0.32854
  47        4PX        -0.87821   0.00000   0.00000  -1.06408   0.00000
  48        4PY         0.00000  -1.47158   0.94826   0.00000   0.02572
  49        4PZ         0.00000  -0.36740   1.34344   0.00000   0.96961
  50        5D 0        0.00000  -0.01522  -0.02013   0.00000   0.00576
  51        5D+1       -0.03086   0.00000   0.00000   0.01923   0.00000
  52        5D-1        0.00000   0.01488  -0.03917   0.00000  -0.01808
  53        5D+2        0.00000  -0.01759   0.01025   0.00000   0.01199
  54        5D-2       -0.00653   0.00000   0.00000   0.01430   0.00000
  55 4   H  1S          0.02465  -0.01086  -0.01419   0.05292   0.04368
  56        2S          0.00082   0.04454  -0.10894   0.81988   0.53758
  57        3S          1.52878  -0.06032  -0.51929  -0.27412  -0.08282
  58        4PX        -0.01912   0.00545   0.01207   0.03500   0.00958
  59        4PY         0.00647   0.01025   0.01167  -0.01119   0.00089
  60        4PZ        -0.01807   0.01180  -0.00673   0.02166   0.02763
  61 5   H  1S         -0.02465  -0.01086  -0.01419  -0.05292   0.04368
  62        2S         -0.00082   0.04454  -0.10894  -0.81988   0.53758
  63        3S         -1.52878  -0.06032  -0.51929   0.27412  -0.08282
  64        4PX        -0.01912  -0.00545  -0.01207   0.03500  -0.00958
  65        4PY        -0.00647   0.01025   0.01167   0.01119   0.00089
  66        4PZ         0.01807   0.01180  -0.00673  -0.02166   0.02763
  67 6   H  1S          0.00000  -0.01969  -0.03793   0.00000  -0.04611
  68        2S          0.00000  -0.32116   0.01247   0.00000  -0.65764
  69        3S          0.00000  -0.09489  -0.03160   0.00000   0.58819
  70        4PX         0.00399   0.00000   0.00000   0.01896   0.00000
  71        4PY         0.00000   0.02073  -0.01462   0.00000   0.03844
  72        4PZ         0.00000  -0.00981  -0.00494   0.00000   0.02545
  73 7   H  1S          0.00000   0.02267   0.00000   0.00000  -0.02360
  74        2S          0.00000   0.14630   0.00000   0.00000   0.17694
  75        3S          0.00000   0.48449   0.00000   0.00000  -0.26940
  76        4PX         0.00000   0.01054   0.00000   0.00000  -0.01927
  77        4PY         0.00691   0.00000   0.00934   0.03689   0.00000
  78        4PZ         0.00000  -0.00049   0.00000   0.00000  -0.00522
  79 8   H  1S          0.00000   0.02267   0.00000   0.00000  -0.02360
  80        2S          0.00000   0.14630   0.00000   0.00000   0.17694
  81        3S          0.00000   0.48449   0.00000   0.00000  -0.26940
  82        4PX         0.00000  -0.01054   0.00000   0.00000   0.01927
  83        4PY        -0.00691   0.00000   0.00934  -0.03689   0.00000
  84        4PZ         0.00000  -0.00049   0.00000   0.00000  -0.00522
  85 9   H  1S          0.00000  -0.01969   0.03793   0.00000  -0.04611
  86        2S          0.00000  -0.32116  -0.01247   0.00000  -0.65764
  87        3S          0.00000  -0.09489   0.03160   0.00000   0.58819
  88        4PX        -0.00399   0.00000   0.00000  -0.01896   0.00000
  89        4PY         0.00000  -0.02073  -0.01462   0.00000  -0.03844
  90        4PZ         0.00000  -0.00981   0.00494   0.00000   0.02545
  91 10  H  1S         -0.02465  -0.01086   0.01419  -0.05292   0.04368
  92        2S         -0.00082   0.04454   0.10894  -0.81988   0.53758
  93        3S         -1.52878  -0.06032   0.51929   0.27412  -0.08282
  94        4PX         0.01912   0.00545  -0.01207  -0.03500   0.00958
  95        4PY         0.00647  -0.01025   0.01167  -0.01119  -0.00089
  96        4PZ         0.01807   0.01180   0.00673  -0.02166   0.02763
  97 11  H  1S          0.02465  -0.01086   0.01419   0.05292   0.04368
  98        2S          0.00082   0.04454   0.10894   0.81988   0.53758
  99        3S          1.52878  -0.06032   0.51929  -0.27412  -0.08282
 100        4PX         0.01912  -0.00545   0.01207  -0.03500  -0.00958
 101        4PY        -0.00647  -0.01025   0.01167   0.01119  -0.00089
 102        4PZ        -0.01807   0.01180   0.00673   0.02166   0.02763
                          26        27        28        29        30
                        (B1)--V   (B2)--V   (A1)--V   (B1)--V   (B2)--V
     Eigenvalues --     0.33497   0.34280   0.34534   0.41580   0.43734
   1 1   C  1S          0.00000   0.01800  -0.01582   0.00000   0.00801
   2        2S          0.00000   0.03456  -0.03072   0.00000   0.01410
   3        2PX         0.00472   0.00000   0.00000   0.01917   0.00000
   4        2PY         0.00000   0.07520  -0.03434   0.00000  -0.05077
   5        2PZ         0.00000  -0.02246   0.05742   0.00000  -0.00238
   6        3S          0.00000  -0.18233   0.19812   0.00000   0.02462
   7        3PX         0.09201   0.00000   0.00000  -0.02543   0.00000
   8        3PY         0.00000   0.25767  -0.15223   0.00000  -0.12512
   9        3PZ         0.00000  -0.11290   0.20476   0.00000  -0.08456
  10        4S          0.00000  -0.70772   0.02827   0.00000  -2.00175
  11        4PX         0.66178   0.00000   0.00000  -1.97387   0.00000
  12        4PY         0.00000  -0.27717   0.47361   0.00000  -0.74941
  13        4PZ         0.00000   0.58859  -0.44297   0.00000  -1.41946
  14        5D 0        0.00000  -0.00102   0.01076   0.00000   0.03500
  15        5D+1       -0.00615   0.00000   0.00000   0.04838   0.00000
  16        5D-1        0.00000   0.01539  -0.02193   0.00000  -0.01175
  17        5D+2        0.00000   0.00224   0.00249   0.00000   0.03718
  18        5D-2       -0.01535   0.00000   0.00000  -0.03781   0.00000
  19 2   C  1S          0.00000   0.00000  -0.01164   0.00000   0.00000
  20        2S          0.00000   0.00000  -0.02591   0.00000   0.00000
  21        2PX         0.04624   0.00000   0.00000  -0.02782   0.00000
  22        2PY         0.00000  -0.05347   0.00000   0.00000  -0.04348
  23        2PZ         0.00000   0.00000  -0.01390   0.00000   0.00000
  24        3S          0.00000   0.00000   0.13633   0.00000   0.00000
  25        3PX         0.16011   0.00000   0.00000   0.04457   0.00000
  26        3PY         0.00000  -0.37338   0.00000   0.00000  -0.21820
  27        3PZ         0.00000   0.00000  -0.13053   0.00000   0.00000
  28        4S          0.00000   0.00000   1.36496   0.00000   0.00000
  29        4PX         0.18287   0.00000   0.00000   3.01011   0.00000
  30        4PY         0.00000   0.96711   0.00000   0.00000   2.11333
  31        4PZ         0.00000   0.00000   1.04904   0.00000   0.00000
  32        5D 0        0.00000   0.00000  -0.00239   0.00000   0.00000
  33        5D+1       -0.01805   0.00000   0.00000   0.04226   0.00000
  34        5D-1        0.00000   0.04970   0.00000   0.00000   0.00259
  35        5D+2        0.00000   0.00000  -0.03343   0.00000   0.00000
  36        5D-2        0.00000   0.00000   0.00000   0.00000   0.00000
  37 3   C  1S          0.00000  -0.01800  -0.01582   0.00000  -0.00801
  38        2S          0.00000  -0.03456  -0.03072   0.00000  -0.01410
  39        2PX         0.00472   0.00000   0.00000   0.01917   0.00000
  40        2PY         0.00000   0.07520   0.03434   0.00000  -0.05077
  41        2PZ         0.00000   0.02246   0.05742   0.00000   0.00238
  42        3S          0.00000   0.18233   0.19812   0.00000  -0.02462
  43        3PX         0.09201   0.00000   0.00000  -0.02543   0.00000
  44        3PY         0.00000   0.25767   0.15223   0.00000  -0.12512
  45        3PZ         0.00000   0.11290   0.20476   0.00000   0.08456
  46        4S          0.00000   0.70772   0.02827   0.00000   2.00175
  47        4PX         0.66178   0.00000   0.00000  -1.97387   0.00000
  48        4PY         0.00000  -0.27717  -0.47361   0.00000  -0.74941
  49        4PZ         0.00000  -0.58859  -0.44297   0.00000   1.41946
  50        5D 0        0.00000   0.00102   0.01076   0.00000  -0.03500
  51        5D+1       -0.00615   0.00000   0.00000   0.04838   0.00000
  52        5D-1        0.00000   0.01539   0.02193   0.00000  -0.01175
  53        5D+2        0.00000  -0.00224   0.00249   0.00000  -0.03718
  54        5D-2        0.01535   0.00000   0.00000   0.03781   0.00000
  55 4   H  1S          0.06505   0.03727   0.01540   0.01111  -0.00182
  56        2S          0.69512   0.51377  -0.00322  -0.73089  -0.16897
  57        3S         -0.18178  -0.06549  -0.04761  -0.15656   0.24086
  58        4PX         0.03819   0.00462   0.00110  -0.03730   0.00122
  59        4PY         0.00837   0.00763   0.01890   0.05329  -0.00834
  60        4PZ         0.00617   0.00964   0.00717  -0.05354  -0.03626
  61 5   H  1S         -0.06505   0.03727   0.01540  -0.01111  -0.00182
  62        2S         -0.69512   0.51377  -0.00322   0.73089  -0.16897
  63        3S          0.18178  -0.06549  -0.04761   0.15656   0.24086
  64        4PX         0.03819  -0.00462  -0.00110  -0.03730  -0.00122
  65        4PY        -0.00837   0.00763   0.01890  -0.05329  -0.00834
  66        4PZ        -0.00617   0.00964   0.00717   0.05354  -0.03626
  67 6   H  1S          0.00000  -0.01964  -0.07318   0.00000   0.06446
  68        2S          0.00000  -0.06986  -0.44678   0.00000   1.51273
  69        3S          0.00000  -0.09264   0.12129   0.00000  -0.19546
  70        4PX         0.01551   0.00000   0.00000  -0.01848   0.00000
  71        4PY         0.00000  -0.00474  -0.02717   0.00000  -0.08513
  72        4PZ         0.00000   0.01947   0.02281   0.00000   0.00140
  73 7   H  1S         -0.09048   0.00000  -0.05315  -0.01783   0.00000
  74        2S         -0.61717   0.00000  -0.84264  -1.36987   0.00000
  75        3S          0.15255   0.00000   0.11809   0.20563   0.00000
  76        4PX         0.02644   0.00000   0.00503   0.06479   0.00000
  77        4PY         0.00000   0.01405   0.00000   0.00000  -0.04546
  78        4PZ        -0.01982   0.00000   0.03354   0.07091   0.00000
  79 8   H  1S          0.09048   0.00000  -0.05315   0.01783   0.00000
  80        2S          0.61717   0.00000  -0.84264   1.36987   0.00000
  81        3S         -0.15255   0.00000   0.11809  -0.20563   0.00000
  82        4PX         0.02644   0.00000  -0.00503   0.06479   0.00000
  83        4PY         0.00000   0.01405   0.00000   0.00000  -0.04546
  84        4PZ         0.01982   0.00000   0.03354  -0.07091   0.00000
  85 9   H  1S          0.00000   0.01964  -0.07318   0.00000  -0.06446
  86        2S          0.00000   0.06986  -0.44678   0.00000  -1.51273
  87        3S          0.00000   0.09264   0.12129   0.00000   0.19546
  88        4PX         0.01551   0.00000   0.00000  -0.01848   0.00000
  89        4PY         0.00000  -0.00474   0.02717   0.00000  -0.08513
  90        4PZ         0.00000  -0.01947   0.02281   0.00000  -0.00140
  91 10  H  1S          0.06505  -0.03727   0.01540   0.01111   0.00182
  92        2S          0.69512  -0.51377  -0.00322  -0.73089   0.16897
  93        3S         -0.18178   0.06549  -0.04761  -0.15656  -0.24086
  94        4PX         0.03819  -0.00462   0.00110  -0.03730  -0.00122
  95        4PY        -0.00837   0.00763  -0.01890  -0.05329  -0.00834
  96        4PZ         0.00617  -0.00964   0.00717  -0.05354   0.03626
  97 11  H  1S         -0.06505  -0.03727   0.01540  -0.01111   0.00182
  98        2S         -0.69512  -0.51377  -0.00322   0.73089   0.16897
  99        3S          0.18178   0.06549  -0.04761   0.15656  -0.24086
 100        4PX         0.03819   0.00462  -0.00110  -0.03730   0.00122
 101        4PY         0.00837   0.00763  -0.01890   0.05329  -0.00834
 102        4PZ        -0.00617  -0.00964   0.00717   0.05354   0.03626
                          31        32        33        34        35
                        (A1)--V   (B2)--V   (B1)--V   (B2)--V   (A1)--V
     Eigenvalues --     0.56454   0.58332   0.59685   0.60058   0.60062
   1 1   C  1S          0.05065  -0.05817   0.00000   0.01937   0.03520
   2        2S          0.09042  -0.10456   0.00000   0.03530   0.06512
   3        2PX         0.00000   0.00000  -0.20114   0.00000   0.00000
   4        2PY         0.11203  -0.03049   0.00000  -0.07804  -0.02183
   5        2PZ        -0.06812  -0.01266   0.00000  -0.17496   0.13577
   6        3S         -0.32167   0.47187   0.00000  -0.19477  -0.32971
   7        3PX         0.00000   0.00000  -0.69901   0.00000   0.00000
   8        3PY         0.18885   0.02902   0.00000  -0.35153  -0.06105
   9        3PZ        -0.11453  -0.17366   0.00000  -0.56266   0.44240
  10        4S         -1.30382  -0.17999   0.00000   0.51067  -0.13680
  11        4PX         0.00000   0.00000   1.27214   0.00000   0.00000
  12        4PY        -0.15437   0.01578   0.00000   1.07810   0.01999
  13        4PZ        -0.01298  -0.13110   0.00000   1.66021  -0.70829
  14        5D 0       -0.01993  -0.01207   0.00000  -0.02121  -0.01919
  15        5D+1        0.00000   0.00000  -0.03905   0.00000   0.00000
  16        5D-1       -0.06709   0.03674   0.00000   0.03066   0.01325
  17        5D+2       -0.05240   0.01570   0.00000  -0.06642   0.02944
  18        5D-2        0.00000   0.00000  -0.01818   0.00000   0.00000
  19 2   C  1S         -0.08652   0.00000   0.00000   0.00000   0.03927
  20        2S         -0.15363   0.00000   0.00000   0.00000   0.07335
  21        2PX         0.00000   0.00000   0.06765   0.00000   0.00000
  22        2PY         0.00000  -0.21637   0.00000   0.07529   0.00000
  23        2PZ        -0.10555   0.00000   0.00000   0.00000  -0.13023
  24        3S          0.61883   0.00000   0.00000   0.00000  -0.44237
  25        3PX         0.00000   0.00000   0.10674   0.00000   0.00000
  26        3PY         0.00000  -0.60354   0.00000   0.10976   0.00000
  27        3PZ        -0.07475   0.00000   0.00000   0.00000  -0.38325
  28        4S          1.30651   0.00000   0.00000   0.00000   1.19764
  29        4PX         0.00000   0.00000  -0.29597   0.00000   0.00000
  30        4PY         0.00000   1.04276   0.00000  -0.74370   0.00000
  31        4PZ         0.07330   0.00000   0.00000   0.00000   0.29958
  32        5D 0        0.01334   0.00000   0.00000   0.00000  -0.02994
  33        5D+1        0.00000   0.00000  -0.00178   0.00000   0.00000
  34        5D-1        0.00000  -0.08117   0.00000   0.02069   0.00000
  35        5D+2        0.09173   0.00000   0.00000   0.00000   0.03583
  36        5D-2        0.00000   0.00000   0.00000   0.00000   0.00000
  37 3   C  1S          0.05065   0.05817   0.00000  -0.01937   0.03520
  38        2S          0.09042   0.10456   0.00000  -0.03530   0.06512
  39        2PX         0.00000   0.00000  -0.20114   0.00000   0.00000
  40        2PY        -0.11203  -0.03049   0.00000  -0.07804   0.02183
  41        2PZ        -0.06812   0.01266   0.00000   0.17496   0.13577
  42        3S         -0.32167  -0.47187   0.00000   0.19477  -0.32971
  43        3PX         0.00000   0.00000  -0.69901   0.00000   0.00000
  44        3PY        -0.18885   0.02902   0.00000  -0.35153   0.06105
  45        3PZ        -0.11453   0.17366   0.00000   0.56266   0.44240
  46        4S         -1.30382   0.17999   0.00000  -0.51067  -0.13680
  47        4PX         0.00000   0.00000   1.27214   0.00000   0.00000
  48        4PY         0.15437   0.01578   0.00000   1.07810  -0.01999
  49        4PZ        -0.01298   0.13110   0.00000  -1.66021  -0.70829
  50        5D 0       -0.01993   0.01207   0.00000   0.02121  -0.01919
  51        5D+1        0.00000   0.00000  -0.03905   0.00000   0.00000
  52        5D-1        0.06709   0.03674   0.00000   0.03066  -0.01325
  53        5D+2       -0.05240  -0.01570   0.00000   0.06642   0.02944
  54        5D-2        0.00000   0.00000   0.01818   0.00000   0.00000
  55 4   H  1S          0.03081  -0.05858  -0.04129  -0.03003   0.05450
  56        2S          0.61063  -0.70718  -0.30447   0.03210   0.53283
  57        3S         -0.10016   0.48417   1.03134   0.61697  -0.52376
  58        4PX         0.00100   0.02510   0.01169   0.02329  -0.03923
  59        4PY         0.01598   0.00038   0.00992  -0.03060   0.00071
  60        4PZ         0.00339   0.01209   0.02710   0.00783  -0.00583
  61 5   H  1S          0.03081  -0.05858   0.04129  -0.03003   0.05450
  62        2S          0.61063  -0.70718   0.30447   0.03210   0.53283
  63        3S         -0.10016   0.48417  -1.03134   0.61697  -0.52376
  64        4PX        -0.00100  -0.02510   0.01169  -0.02329   0.03923
  65        4PY         0.01598   0.00038  -0.00992  -0.03060   0.00071
  66        4PZ         0.00339   0.01209  -0.02710   0.00783  -0.00583
  67 6   H  1S          0.03065  -0.03715   0.00000   0.06050   0.01302
  68        2S          0.63780  -0.40231   0.00000   0.06916   0.22088
  69        3S         -0.15700  -0.05111   0.00000  -1.51578   0.30948
  70        4PX         0.00000   0.00000  -0.03257   0.00000   0.00000
  71        4PY        -0.00013  -0.04122   0.00000   0.07667  -0.00055
  72        4PZ        -0.01011   0.00395   0.00000   0.00509   0.02321
  73 7   H  1S         -0.04803   0.00000  -0.02409   0.00000   0.06448
  74        2S         -0.88876   0.00000  -0.22103   0.00000   0.44741
  75        3S          0.38395   0.00000   0.19509   0.00000  -0.44280
  76        4PX        -0.00248   0.00000   0.00629   0.00000   0.05127
  77        4PY         0.00000  -0.01539   0.00000   0.04801   0.00000
  78        4PZ         0.00583   0.00000  -0.03250   0.00000   0.02474
  79 8   H  1S         -0.04803   0.00000   0.02409   0.00000   0.06448
  80        2S         -0.88876   0.00000   0.22103   0.00000   0.44741
  81        3S          0.38395   0.00000  -0.19509   0.00000  -0.44280
  82        4PX         0.00248   0.00000   0.00629   0.00000  -0.05127
  83        4PY         0.00000  -0.01539   0.00000   0.04801   0.00000
  84        4PZ         0.00583   0.00000   0.03250   0.00000   0.02474
  85 9   H  1S          0.03065   0.03715   0.00000  -0.06050   0.01302
  86        2S          0.63780   0.40231   0.00000  -0.06916   0.22088
  87        3S         -0.15700   0.05111   0.00000   1.51578   0.30948
  88        4PX         0.00000   0.00000  -0.03257   0.00000   0.00000
  89        4PY         0.00013  -0.04122   0.00000   0.07667   0.00055
  90        4PZ        -0.01011  -0.00395   0.00000  -0.00509   0.02321
  91 10  H  1S          0.03081   0.05858  -0.04129   0.03003   0.05450
  92        2S          0.61063   0.70718  -0.30447  -0.03210   0.53283
  93        3S         -0.10016  -0.48417   1.03134  -0.61697  -0.52376
  94        4PX         0.00100  -0.02510   0.01169  -0.02329  -0.03923
  95        4PY        -0.01598   0.00038  -0.00992  -0.03060  -0.00071
  96        4PZ         0.00339  -0.01209   0.02710  -0.00783  -0.00583
  97 11  H  1S          0.03081   0.05858   0.04129   0.03003   0.05450
  98        2S          0.61063   0.70718   0.30447  -0.03210   0.53283
  99        3S         -0.10016  -0.48417  -1.03134  -0.61697  -0.52376
 100        4PX        -0.00100   0.02510   0.01169   0.02329   0.03923
 101        4PY        -0.01598   0.00038   0.00992  -0.03060  -0.00071
 102        4PZ         0.00339  -0.01209  -0.02710  -0.00783  -0.00583
                          36        37        38        39        40
                        (B1)--V   (A2)--V   (A1)--V   (A1)--V   (B2)--V
     Eigenvalues --     0.60687   0.61891   0.62132   0.62590   0.65019
   1 1   C  1S          0.00000   0.00000  -0.00346   0.01658   0.02367
   2        2S          0.00000   0.00000  -0.00669   0.03100   0.04423
   3        2PX        -0.00724  -0.19536   0.00000   0.00000   0.00000
   4        2PY         0.00000   0.00000  -0.00498  -0.20203  -0.13443
   5        2PZ         0.00000   0.00000  -0.11386  -0.03684   0.10381
   6        3S          0.00000   0.00000   0.01591  -0.14521  -0.25069
   7        3PX        -0.12215  -0.69422   0.00000   0.00000   0.00000
   8        3PY         0.00000   0.00000  -0.09755  -0.59646  -0.48262
   9        3PZ         0.00000   0.00000  -0.43867  -0.16963   0.29091
  10        4S          0.00000   0.00000   1.19463  -0.95621  -0.60622
  11        4PX         0.12327   1.48734   0.00000   0.00000   0.00000
[...]
 Total V=0       0.322999D+12         11.509201         26.500916
 Vib (Bot)       0.117981D-46        -46.928186       -108.056142
 Vib (Bot)    1  0.903487D+00         -0.044078         -0.101493
 Vib (Bot)    2  0.718804D+00         -0.143390         -0.330167
 Vib (Bot)    3  0.498016D+00         -0.302757         -0.697124
 Vib (V=0)       0.277105D+01          0.442645          1.019228
 Vib (V=0)    1  0.153261D+01          0.185432          0.426974
 Vib (V=0)    2  0.137560D+01          0.138493          0.318891
 Vib (V=0)    3  0.120570D+01          0.081241          0.187064
 Electronic      0.100000D+01          0.000000          0.000000
 Translational   0.114964D+08          7.060560         16.257541
 Rotational      0.101390D+05          4.005996          9.224147
 ***** Axes restored to original set *****
 -------------------------------------------------------------------
 Center     Atomic                   Forces (Hartrees/Bohr)
 Number     Number              X              Y              Z
 -------------------------------------------------------------------
      1        6          -0.000146085    0.000000000    0.000206112
      2        6           0.000344870    0.000000000   -0.000243860
      3        6          -0.000243019    0.000000000    0.000069026
      4        1          -0.000032900    0.000060785   -0.000036642
      5        1          -0.000032900   -0.000060785   -0.000036642
      6        1           0.000098027    0.000000000   -0.000059627
      7        1          -0.000062022   -0.000005896    0.000043856
      8        1          -0.000062022    0.000005896    0.000043856
      9        1           0.000088892    0.000000000   -0.000072545
     10        1           0.000023580    0.000060785    0.000043233
     11        1           0.000023580   -0.000060785    0.000043233
 -------------------------------------------------------------------
 Cartesian Forces:  Max     0.000344870 RMS     0.000105668

 GradGradGradGradGradGradGradGradGradGradGradGradGradGradGradGradGradGrad
 Berny optimization.
 Internal  Forces:  Max     0.000172220 RMS     0.000055999
 Search for a local minimum.
 Step number   1 out of a maximum of    2
 All quantities printed in internal units (Hartrees-Bohrs-Radians)
 Second derivative matrix not updated -- analytic derivatives used.
 ITU=  0
     Eigenvalues ---    0.00220   0.00263   0.03517   0.03925   0.04486
     Eigenvalues ---    0.04533   0.04568   0.04623   0.07083   0.10280
     Eigenvalues ---    0.11920   0.12292   0.12793   0.14213   0.15007
     Eigenvalues ---    0.16339   0.21506   0.28476   0.29546   0.32194
     Eigenvalues ---    0.32802   0.32936   0.32965   0.33180   0.33356
     Eigenvalues ---    0.33980   0.34152
 Angle between quadratic step and forces=  37.59 degrees.
 Linear search not attempted -- first point.
 Iteration  1 RMS(Cart)=  0.00068745 RMS(Int)=  0.00000037
 Iteration  2 RMS(Cart)=  0.00000043 RMS(Int)=  0.00000012
 ClnCor:  largest displacement from symmetrization is 1.47D-10 for atom     5.
 Variable       Old X    -DE/DX   Delta X   Delta X   Delta X     New X
                                 (Linear)    (Quad)   (Total)
    R1        2.89466  -0.00007   0.00000  -0.00056  -0.00056   2.89410
    R2        2.06874  -0.00005   0.00000  -0.00009  -0.00009   2.06866
    R3        2.06874  -0.00005   0.00000  -0.00009  -0.00009   2.06866
    R4        2.06671  -0.00007   0.00000  -0.00021  -0.00021   2.06650
    R5        2.89466  -0.00007   0.00000  -0.00056  -0.00056   2.89410
    R6        2.07072   0.00004   0.00000   0.00020   0.00020   2.07092
    R7        2.07072   0.00004   0.00000   0.00020   0.00020   2.07092
    R8        2.06671  -0.00007   0.00000  -0.00021  -0.00021   2.06650
    R9        2.06874  -0.00005   0.00000  -0.00009  -0.00009   2.06866
   R10        2.06874  -0.00005   0.00000  -0.00009  -0.00009   2.06866
    A1        1.93871   0.00005   0.00000   0.00049   0.00049   1.93920
    A2        1.93871   0.00005   0.00000   0.00049   0.00049   1.93920
    A3        1.94626   0.00010   0.00000   0.00065   0.00065   1.94691
    A4        1.87681  -0.00006   0.00000  -0.00064  -0.00064   1.87617
    A5        1.88020  -0.00008   0.00000  -0.00055  -0.00055   1.87965
    A6        1.88020  -0.00008   0.00000  -0.00055  -0.00055   1.87965
    A7        1.97089   0.00017   0.00000   0.00122   0.00122   1.97211
    A8        1.90926  -0.00004   0.00000  -0.00006  -0.00006   1.90920
    A9        1.90926  -0.00004   0.00000  -0.00006  -0.00006   1.90920
   A10        1.90926  -0.00004   0.00000  -0.00006  -0.00006   1.90920
   A11        1.90926  -0.00004   0.00000  -0.00006  -0.00006   1.90920
   A12        1.85215  -0.00001   0.00000  -0.00113  -0.00113   1.85103
   A13        1.94626   0.00010   0.00000   0.00065   0.00065   1.94691
   A14        1.93871   0.00005   0.00000   0.00049   0.00049   1.93920
   A15        1.93871   0.00005   0.00000   0.00049   0.00049   1.93920
   A16        1.88020  -0.00008   0.00000  -0.00055  -0.00055   1.87965
   A17        1.88020  -0.00008   0.00000  -0.00055  -0.00055   1.87965
   A18        1.87681  -0.00006   0.00000  -0.00064  -0.00064   1.87617
    D1        1.04408  -0.00001   0.00000  -0.00008  -0.00008   1.04401
    D2       -3.10847   0.00002   0.00000   0.00063   0.00063  -3.10783
    D3       -1.08655  -0.00004   0.00000  -0.00079  -0.00079  -1.08734
    D4       -1.04408   0.00001   0.00000   0.00008   0.00008  -1.04401
    D5        1.08655   0.00004   0.00000   0.00079   0.00079   1.08734
    D6        3.10847  -0.00002   0.00000  -0.00063  -0.00063   3.10783
    D7        3.14159   0.00000   0.00000   0.00000   0.00000   3.14159
    D8       -1.01096   0.00003   0.00000   0.00071   0.00071  -1.01025
    D9        1.01096  -0.00003   0.00000  -0.00071  -0.00071   1.01025
   D10        3.14159   0.00000   0.00000   0.00000   0.00000   3.14159
   D11       -1.04408   0.00001   0.00000   0.00008   0.00008  -1.04401
   D12        1.04408  -0.00001   0.00000  -0.00008  -0.00008   1.04401
   D13        1.01096  -0.00003   0.00000  -0.00071  -0.00071   1.01025
   D14        3.10847  -0.00002   0.00000  -0.00063  -0.00063   3.10783
   D15       -1.08655  -0.00004   0.00000  -0.00079  -0.00079  -1.08734
   D16       -1.01096   0.00003   0.00000   0.00071   0.00071  -1.01025
   D17        1.08655   0.00004   0.00000   0.00079   0.00079   1.08734
   D18       -3.10847   0.00002   0.00000   0.00063   0.00063  -3.10783
         Item               Value     Threshold  Converged?
 Maximum Force            0.000172     0.000450     YES
 RMS     Force            0.000056     0.000300     YES
 Maximum Displacement     0.001735     0.001800     YES
 RMS     Displacement     0.000687     0.001200     YES
 Predicted change in Energy=-5.536944D-07
 Optimization completed.
    -- Stationary point found.
                           ----------------------------
                           !   Optimized Parameters   !
                           ! (Angstroms and Degrees)  !
 --------------------------                            --------------------------
 ! Name  Definition              Value          Derivative Info.                !
 --------------------------------------------------------------------------------
 ! R1    R(1,2)                  1.5318         -DE/DX =   -0.0001              !
 ! R2    R(1,4)                  1.0947         -DE/DX =   -0.0001              !
 ! R3    R(1,5)                  1.0947         -DE/DX =   -0.0001              !
 ! R4    R(1,6)                  1.0937         -DE/DX =   -0.0001              !
 ! R5    R(2,3)                  1.5318         -DE/DX =   -0.0001              !
 ! R6    R(2,7)                  1.0958         -DE/DX =    0.0                 !
 ! R7    R(2,8)                  1.0958         -DE/DX =    0.0                 !
 ! R8    R(3,9)                  1.0937         -DE/DX =   -0.0001              !
 ! R9    R(3,10)                 1.0947         -DE/DX =   -0.0001              !
 ! R10   R(3,11)                 1.0947         -DE/DX =   -0.0001              !
 ! A1    A(2,1,4)              111.0796         -DE/DX =    0.0                 !
 ! A2    A(2,1,5)              111.0796         -DE/DX =    0.0                 !
 ! A3    A(2,1,6)              111.5125         -DE/DX =    0.0001              !
 ! A4    A(4,1,5)              107.5331         -DE/DX =   -0.0001              !
 ! A5    A(4,1,6)              107.7274         -DE/DX =   -0.0001              !
 ! A6    A(5,1,6)              107.7274         -DE/DX =   -0.0001              !
 ! A7    A(1,2,3)              112.9237         -DE/DX =    0.0002              !
 ! A8    A(1,2,7)              109.3923         -DE/DX =    0.0                 !
 ! A9    A(1,2,8)              109.3923         -DE/DX =    0.0                 !
 ! A10   A(3,2,7)              109.3923         -DE/DX =    0.0                 !
 ! A11   A(3,2,8)              109.3923         -DE/DX =    0.0                 !
 ! A12   A(7,2,8)              106.1206         -DE/DX =    0.0                 !
 ! A13   A(2,3,9)              111.5125         -DE/DX =    0.0001              !
 ! A14   A(2,3,10)             111.0796         -DE/DX =    0.0                 !
 ! A15   A(2,3,11)             111.0796         -DE/DX =    0.0                 !
 ! A16   A(9,3,10)             107.7274         -DE/DX =   -0.0001              !
 ! A17   A(9,3,11)             107.7274         -DE/DX =   -0.0001              !
 ! A18   A(10,3,11)            107.5331         -DE/DX =   -0.0001              !
 ! D1    D(4,1,2,3)             59.8216         -DE/DX =    0.0                 !
 ! D2    D(4,1,2,7)           -178.1019         -DE/DX =    0.0                 !
 ! D3    D(4,1,2,8)            -62.2549         -DE/DX =    0.0                 !
 ! D4    D(5,1,2,3)            -59.8216         -DE/DX =    0.0                 !
 ! D5    D(5,1,2,7)             62.2549         -DE/DX =    0.0                 !
 ! D6    D(5,1,2,8)            178.1019         -DE/DX =    0.0                 !
 ! D7    D(6,1,2,3)            180.0            -DE/DX =    0.0                 !
 ! D8    D(6,1,2,7)            -57.9235         -DE/DX =    0.0                 !
 ! D9    D(6,1,2,8)             57.9235         -DE/DX =    0.0                 !
 ! D10   D(1,2,3,9)            180.0            -DE/DX =    0.0                 !
 ! D11   D(1,2,3,10)           -59.8216         -DE/DX =    0.0                 !
 ! D12   D(1,2,3,11)            59.8216         -DE/DX =    0.0                 !
 ! D13   D(7,2,3,9)             57.9235         -DE/DX =    0.0                 !
 ! D14   D(7,2,3,10)           178.1019         -DE/DX =    0.0                 !
 ! D15   D(7,2,3,11)           -62.2549         -DE/DX =    0.0                 !
 ! D16   D(8,2,3,9)            -57.9235         -DE/DX =    0.0                 !
 ! D17   D(8,2,3,10)            62.2549         -DE/DX =    0.0                 !
 ! D18   D(8,2,3,11)          -178.1019         -DE/DX =    0.0                 !
 --------------------------------------------------------------------------------
 GradGradGradGradGradGradGradGradGradGradGradGradGradGradGradGradGradGrad


 Test job not archived.
 1\1\GINC-TERMINUS\Freq\RB3LYP\6-311G(2d,d,p)\C3H8\SEBASTIAN\30-Apr-202
 2\0\\#N Geom=AllCheck Guess=TCheck SCRF=Check Test GenChk RB3LYP/6-311
 G(2d,d,p) Freq\\prueba para propano\\0,1\C,-0.0353278554,0.,-0.0387412
 705\C,0.010815444,0.,1.4923523262\C,1.4389632307,0.,2.0462211783\H,0.4
 660679746,-0.8830280923,-0.4477680017\H,0.4660679746,0.8830280923,-0.4
 477680017\H,-1.0644142448,0.,-0.4089558578\H,-0.5268759901,0.875820800
 9,1.8725575854\H,-0.5268759901,-0.8758208009,1.8725575854\H,1.44497609
 45,0.,3.1398579933\H,1.9917292744,-0.8830280923,1.7098429001\H,1.99172
 92744,0.8830280923,1.7098429001\\Version=EM64L-G09RevB.01\State=1-A1\H
 F=-119.180686\RMSD=3.393e-09\RMSF=1.057e-04\ZeroPoint=0.1029874\Therma
 l=0.1075284\Dipole=-0.0247352,0.,0.0174904\DipoleDeriv=0.0865101,0.,-0
 .0374798,0.,0.1319471,0.,-0.0214969,0.,0.0096581,0.1339391,0.,0.013998
 5,0.,0.1580912,0.,0.0139985,0.,0.1438376,0.0367319,0.,-0.0390962,0.,0.
 1319471,0.,-0.0550791,0.,0.0594364,0.0128437,0.096383,0.0604457,0.0884
 367,-0.0948663,-0.0863092,0.0230653,-0.0427114,-0.0075113,0.0128437,-0
 .096383,0.0604457,-0.0884367,-0.0948663,0.0863092,0.0230653,0.0427114,
 -0.0075113,-0.1528371,0.,-0.1077121,0.,0.0729468,0.,-0.0760305,0.,-0.0
 166024,-0.0465237,0.0906946,0.0237099,0.1133838,-0.0942069,-0.0801745,
 0.0237099,-0.0641308,-0.0297583,-0.0465237,-0.0906946,0.0237099,-0.113
 3838,-0.0942069,0.0801745,0.0237099,0.0641308,-0.0297583,0.0260051,0.,
 -0.0128002,0.,0.0729468,0.,-0.0444818,0.,-0.1954446,-0.0314946,0.07239
 63,0.0073893,0.110852,-0.0948663,-0.0546092,0.0447697,-0.0766336,0.036
 827,-0.0314946,-0.0723963,0.0073893,-0.110852,-0.0948663,0.0546092,0.0
 447697,0.0766336,0.036827\Polar=37.5728406,0.,34.6751289,2.1259452,0.,
 39.0761109\PG=C02V [C2(C1),SGV(C2H2),SGV'(H2),X(H4)]\NImag=0\\0.565901
 90,0.,0.55748476,0.00061172,0.,0.46164992,-0.07873183,0.,-0.00103040,0
 .49902057,0.,-0.07943076,0.,0.,0.58550058,0.00198843,0.,-0.18729918,-0
 .03951542,0.,0.47107896,-0.00204130,0.,-0.00562475,-0.17553722,0.,-0.0
 3525627,0.47284899,0.,0.00018546,0.,0.,-0.07943076,0.,0.,0.55748476,-0
 .03571838,0.,-0.01665831,-0.03223744,0.,-0.09049379,-0.03228745,0.,0.5
 5470284,-0.10166452,0.09542618,0.04221616,-0.00052237,-0.00085964,-0.0
 0000179,0.00082998,-0.00108608,-0.00037471,0.10641772,0.09525663,-0.21
 658470,-0.07458858,-0.00042821,0.00060800,0.00016407,-0.00011841,0.000
 21022,0.00028711,-0.10600687,0.23355533,0.04162549,-0.07383208,-0.0792
 0988,0.01591313,-0.02882474,-0.01367024,0.00127904,-0.00058999,0.00174
 805,-0.04695545,0.08264465,0.08886424,-0.10166452,-0.09542618,0.042216
 16,-0.00052237,0.00085964,-0.00000179,0.00082998,0.00108608,-0.0003747
 1,0.00736992,0.01270390,-0.00648067,0.10641772,-0.09525663,-0.21658470
 ,0.07458858,0.00042821,0.00060800,-0.00016407,0.00011841,0.00021022,-0
 .00028711,-0.01270390,-0.02117969,0.00923185,0.10600687,0.23355533,0.0
 4162549,0.07383208,-0.07920988,0.01591313,0.02882474,-0.01367024,0.001
 27904,0.00058999,0.00174805,-0.00648067,-0.00923185,0.00386693,-0.0469
 5545,-0.08264465,0.08886424,-0.27918459,0.,-0.07989266,0.00124299,0.,0
 .00143907,0.00121875,0.,-0.00076265,-0.01355446,-0.00044425,-0.0040598
 5,-0.01355446,0.00044425,-0.00405985,0.30252797,0.,-0.04735228,0.,0.,-
 0.00148171,0.,0.,0.00039525,0.,0.02551682,0.00054334,0.00943580,-0.025
 51682,0.00054334,-0.00943580,0.,0.04628336,-0.07851301,0.,-0.07384818,
 -0.03293223,0.,-0.00955645,0.00199910,0.,-0.00697198,0.01134758,0.0011
 4868,0.00346522,0.01134758,-0.00114868,0.00346522,0.08798935,0.,0.0815
 4045,0.00055583,-0.00131619,-0.00035901,-0.10603549,0.09602299,0.04207
 412,-0.01758024,0.02630622,0.00970179,0.00091887,-0.00008032,-0.000553
 13,-0.00017399,0.00018615,0.00021992,0.00046772,-0.00037313,0.00026353
 ,0.11731938,-0.00086859,0.00073327,0.00021629,0.09705211,-0.21305383,-
 0.06862621,-0.00049345,0.00073327,0.00074682,-0.00050497,0.00172211,0.
 00042249,-0.00004991,0.00086799,-0.00040942,-0.00036471,0.00005233,-0.
 00058572,-0.10739763,0.22860271,0.01611386,-0.02836730,-0.01427706,0.0
 4207412,-0.06789851,-0.07628460,-0.00677107,0.01069669,0.00385900,-0.0
 0033615,0.00043243,-0.00689024,0.00033071,0.00048115,0.00144571,-0.000
 54495,0.00000408,0.00126454,-0.04320146,0.07594160,0.08677133,0.000555
 83,0.00131619,-0.00035901,-0.10603549,-0.09602299,0.04207412,-0.017580
 24,-0.02630622,0.00970179,-0.00017399,-0.00018614,0.00021992,0.0009188
 7,0.00008032,-0.00055313,0.00046772,0.00037313,0.00026353,0.00791386,0
 .01239379,-0.00596954,0.11731938,0.00086859,0.00073327,-0.00021629,-0.
 09705211,-0.21305383,0.06862621,0.00049345,0.00073327,-0.00074682,0.00
 004991,0.00086799,0.00040942,0.00050497,0.00172211,-0.00042249,0.00036
 471,0.00005233,0.00058572,-0.01239379,-0.02230027,0.00876374,0.1073976
 4,0.22860271,0.01611386,0.02836730,-0.01427706,0.04207412,0.06789851,-
 0.07628460,-0.00677107,-0.01069669,0.00385900,0.00033071,-0.00048115,0
 .00144571,-0.00033615,-0.00043243,-0.00689024,-0.00054495,-0.00000408,
 0.00126454,-0.00596954,-0.00876374,0.00369275,-0.04320146,-0.07594160,
 0.08677133,-0.00645048,0.,-0.00071238,0.00154083,0.,-0.03282693,-0.046
 88124,0.,0.00361863,0.00000223,-0.00026637,0.00008983,0.00000223,0.000
 26637,0.00008984,-0.00009998,0.,-0.00210911,0.00126445,0.00043065,0.00
 054521,0.00126445,-0.00043065,0.00054521,0.05078985,0.,0.00039525,0.,0
 .,-0.00148171,0.,0.,-0.04735228,0.,-0.00001894,0.00020959,0.00043273,0
 .00001894,0.00020959,-0.00043273,0.,0.00054485,0.,-0.00012823,0.000052
 33,0.00035043,0.00012823,0.00005233,-0.00035043,0.,0.04628336,-0.00347
 413,0.,0.00069724,0.00154438,0.,-0.00985429,0.00223898,0.,-0.30615153,
 0.00014452,0.00005537,0.00034602,0.00014452,-0.00005537,0.00034602,-0.
 00001656,0.,-0.00085152,-0.00026326,0.00053909,0.00046781,-0.00026326,
 -0.00053910,0.00046781,-0.00101351,0.,0.33327857,0.00136184,0.00019423
 ,0.00146707,-0.01720982,0.02688968,0.01001323,-0.10805373,0.10141828,0
 .03936657,0.00035884,-0.00049952,-0.00094766,0.00001776,-0.00006955,-0
 .00013066,0.00023418,-0.00041430,0.00017184,-0.00574309,-0.00056665,-0
 .00290849,0.00109270,-0.00036936,0.00066776,-0.00071617,-0.00039055,0.
 00047917,0.12032798,-0.00031016,0.00021022,0.00001593,-0.00029742,0.00
 060800,0.00034903,0.10207500,-0.21658470,-0.06494595,0.00022513,0.0001
 4579,0.00060942,0.00003765,-0.00009800,-0.00006046,-0.00014100,0.00020
 959,0.00023267,-0.00043447,0.00172211,-0.00006842,0.00039158,0.0008679
 9,0.00033588,-0.00123107,0.00054334,0.00003595,-0.11325374,0.23355533,
 -0.00018667,0.00122063,0.00121619,-0.00590169,0.01041872,0.00301721,0.
 03995724,-0.06535797,-0.07282067,0.00011736,-0.00041540,0.00006529,-0.
 00000756,0.00001534,-0.00003111,0.00022652,-0.00012639,0.00011408,-0.0
 0269151,0.00033526,-0.00022828,0.00077855,-0.00018353,0.00017903,0.015
 88660,-0.02720276,-0.00937307,-0.04203743,0.07239602,0.07495399,0.0013
 6184,-0.00019423,0.00146708,-0.01720982,-0.02688968,0.01001323,-0.1080
 5373,-0.10141828,0.03936657,0.00001776,0.00006955,-0.00013066,0.000358
 84,0.00049952,-0.00094766,0.00023418,0.00041430,0.00017184,0.00109270,
 0.00036936,0.00066776,-0.00574309,0.00056665,-0.00290849,-0.00071617,0
 .00039055,0.00047917,0.00832951,0.01293851,-0.00614141,0.12032798,0.00
 031016,0.00021022,-0.00001593,0.00029742,0.00060800,-0.00034903,-0.102
 07500,-0.21658470,0.06494595,-0.00003765,-0.00009800,0.00006046,-0.000
 22513,0.00014579,-0.00060942,0.00014100,0.00020959,-0.00023268,-0.0003
 9158,0.00086799,-0.00033588,0.00043447,0.00172211,0.00006842,0.0012310
 7,0.00054334,-0.00003595,-0.01293851,-0.02117969,0.00890007,0.11325374
 ,0.23355533,-0.00018667,-0.00122063,0.00121619,-0.00590169,-0.01041872
 ,0.00301721,0.03995724,0.06535797,-0.07282067,-0.00000756,-0.00001534,
 -0.00003111,0.00011736,0.00041540,0.00006529,0.00022652,0.00012639,0.0
 0011408,0.00077855,0.00018353,0.00017903,-0.00269151,-0.00033526,-0.00
 022828,0.01588660,0.02720276,-0.00937307,-0.00614141,-0.00890007,0.002
 90734,-0.04203743,-0.07239602,0.07495399\\0.00014609,0.,-0.00020611,-0
 .00034487,0.,0.00024386,0.00024302,0.,-0.00006903,0.00003290,-0.000060
 78,0.00003664,0.00003290,0.00006078,0.00003664,-0.00009803,0.,0.000059
 63,0.00006202,0.00000590,-0.00004386,0.00006202,-0.00000590,-0.0000438
 6,-0.00008889,0.,0.00007255,-0.00002358,-0.00006078,-0.00004323,-0.000
 02358,0.00006078,-0.00004323\\\@


 THE ... SCIENTISTS WERE WRONG ... THE MOST PERSISTENT PRINCIPLES 
 OF THE UNIVERSE WERE ACCIDENT AND ERROR.

                          -- FRANK HERBERT IN DUNE
 Job cpu time:  0 days  0 hours  0 minutes 39.9 seconds.
 File lengths (MBytes):  RWF=     11 Int=      0 D2E=      0 Chk=      2 Scr=      1
 Normal termination of Gaussian 09 at Sat Apr 30 16:22:36 2022.
